
     Program PWSCF v.6.1 starts on 29May2023 at 17:39:21 

     This program is part of the open-source Quantum ESPRESSO suite
     for quantum simulation of materials; please cite
         "P. Giannozzi et al., J. Phys.:Condens. Matter 21 395502 (2009);
          URL http://www.quantum-espresso.org", 
     in publications or presentations arising from this work. More details at
     http://www.quantum-espresso.org/quote

     Parallel version (MPI & OpenMP), running on     144 processor cores
     Number of MPI processes:               144
     Threads/MPI process:                     1
     K-points division:     npool     =       4
     R & G space division:  proc/nbgrp/npool/nimage =      36
     Waiting for input...
     Reading input from standard input

     Current dimensions of program PWSCF are:
     Max number of different atomic species (ntypx) = 10
     Max number of k-points (npk) =  40000
     Max angular momentum in pseudopotentials (lmaxx) =  3

     IMPORTANT: XC functional enforced from input :
     Exchange-correlation      = VDW-DF2-B86R ( 1  4 26  0 2 0)
     Any further DFT definition will be discarded
     Please, verify this is what you really want

               file Pd.pbe-n-rrkjus_psl.1.0.0.UPF: wavefunction(s)  4D renormalized

     Subspace diagonalization in iterative solution of the eigenvalue problem:
     a serial algorithm will be used

 
     Parallelization info
     --------------------
     sticks:   dense  smooth     PW     G-vecs:    dense   smooth      PW
     Min         403     201     53                80801    28571    3853
     Max         404     202     54                80810    28584    3861
     Sum       14539    7267   1915              2909047  1028847  138895
 


     bravais-lattice index     =            0
     lattice parameter (alat)  =      20.9578  a.u.
     unit-cell volume          =   16383.0267 (a.u.)^3
     number of atoms/cell      =           67
     number of atomic types    =            3
     number of electrons       =       648.00
     number of Kohn-Sham states=          389
     kinetic-energy cutoff     =      60.0000  Ry
     charge density cutoff     =     480.0000  Ry
     convergence threshold     =      1.0E-08
     mixing beta               =       0.3000
     number of iterations used =            8  plain     mixing
     Exchange-correlation      = VDW-DF2-B86R ( 1  4 26  0 2 0)
     nstep                     =           50


     Effective Screening Medium Method
     =================================
     Boundary Conditions: Vacuum-Slab-Metal
     total charge in unit cell        =   0.0000
     grid points for fit at edges     =        4 
 

     >>>> FCP Relaxation is activated <<<<<
     Initial Total Charge =     0.000000 e
     Target Fermi Energy  =    -0.302697 Ry
                          =    -4.118400 eV

     celldm(1)=  20.957827  celldm(2)=   0.000000  celldm(3)=   0.000000
     celldm(4)=   0.000000  celldm(5)=   0.000000  celldm(6)=   0.000000

     crystal axes: (cart. coord. in units of alat)
               a(1) = (   1.000000   0.000000   0.000000 )  
               a(2) = (   0.500000   0.866025   0.000000 )  
               a(3) = (   0.000000   0.000000   2.055061 )  

     reciprocal axes: (cart. coord. in units 2 pi/alat)
               b(1) = (  1.000000 -0.577350  0.000000 )  
               b(2) = (  0.000000  1.154700  0.000000 )  
               b(3) = (  0.000000  0.000000  0.486604 )  


     PseudoPot. # 1 for Pd read from file:
     /home/EIS00001/gen1127/pseudopotential/Pd.pbe-n-rrkjus_psl.1.0.0.UPF
     MD5 check sum: 051e10227d153afa77eb34afaf346f5c
     Pseudo is Ultrasoft + core correction, Zval = 10.0
     Generated using "atomic" code by A. Dal Corso  v.6.3
     Using radial grid of 1235 points,  6 beta functions with: 
                l(1) =   0
                l(2) =   0
                l(3) =   1
                l(4) =   1
                l(5) =   2
                l(6) =   2
     Q(r) pseudized with 0 coefficients 


     PseudoPot. # 2 for  O read from file:
     /home/EIS00001/gen1127/pseudopotential/O.pbe-n-rrkjus_psl.1.0.0.UPF
     MD5 check sum: 91400c9766925bcf19f520983a725ff0
     Pseudo is Ultrasoft + core correction, Zval =  6.0
     Generated using "atomic" code by A. Dal Corso  v.6.3MaX
     Using radial grid of 1095 points,  4 beta functions with: 
                l(1) =   0
                l(2) =   0
                l(3) =   1
                l(4) =   1
     Q(r) pseudized with 0 coefficients 


     PseudoPot. # 3 for  H read from file:
     /home/EIS00001/gen1127/pseudopotential/H.pbe-rrkjus_psl.1.0.0.UPF
     MD5 check sum: 3f4114867bd07edc7f1424d066fc1888
     Pseudo is Ultrasoft, Zval =  1.0
     Generated using "atomic" code by A. Dal Corso  v.6.3MaX
     Using radial grid of  929 points,  2 beta functions with: 
                l(1) =   0
                l(2) =   0
     Q(r) pseudized with 0 coefficients 


     vdW kernel table read from file vdW_kernel_table
     MD5 check sum: c07fb220078ed9848b3edcd37ea77ff5

     atomic species   valence    mass     pseudopotential
        Pd            10.00   106.42000     Pd( 1.00)
        O              6.00    15.99940      O( 1.00)
        H              1.00     1.00794      H( 1.00)

     No symmetry found



   Cartesian axes

     site n.     atom                  positions (alat units)
         1           Pd  tau(   1) = (   0.0000000   0.0000000  -0.3061862  )
         2           Pd  tau(   2) = (   0.1250000   0.2165064  -0.3061862  )
         3           Pd  tau(   3) = (   0.2500000   0.4330127  -0.3061862  )
         4           Pd  tau(   4) = (   0.3750000   0.6495191  -0.3061862  )
         5           Pd  tau(   5) = (   0.2500000   0.0000000  -0.3061862  )
         6           Pd  tau(   6) = (   0.3750000   0.2165064  -0.3061862  )
         7           Pd  tau(   7) = (   0.5000000   0.4330127  -0.3061862  )
         8           Pd  tau(   8) = (   0.6250000   0.6495191  -0.3061862  )
         9           Pd  tau(   9) = (   0.5000000   0.0000000  -0.3061862  )
        10           Pd  tau(  10) = (   0.6250000   0.2165064  -0.3061862  )
        11           Pd  tau(  11) = (   0.7500000   0.4330127  -0.3061862  )
        12           Pd  tau(  12) = (   0.8750000   0.6495191  -0.3061862  )
        13           Pd  tau(  13) = (   0.7500000   0.0000000  -0.3061862  )
        14           Pd  tau(  14) = (   0.8750000   0.2165064  -0.3061862  )
        15           Pd  tau(  15) = (   1.0000000   0.4330127  -0.3061862  )
        16           Pd  tau(  16) = (   1.1250000   0.6495191  -0.3061862  )
        17           Pd  tau(  17) = (   0.1250000   0.0721688  -0.1020620  )
        18           Pd  tau(  18) = (   0.2500000   0.2886752  -0.1020620  )
        19           Pd  tau(  19) = (   0.3750000   0.5051815  -0.1020620  )
        20           Pd  tau(  20) = (   0.4999999   0.7216878  -0.1020620  )
        21           Pd  tau(  21) = (   0.3750000   0.0721688  -0.1020620  )
        22           Pd  tau(  22) = (   0.5000000   0.2886752  -0.1020620  )
        23           Pd  tau(  23) = (   0.6250000   0.5051815  -0.1020620  )
        24           Pd  tau(  24) = (   0.7500000   0.7216878  -0.1020620  )
        25           Pd  tau(  25) = (   0.6250000   0.0721688  -0.1020620  )
        26           Pd  tau(  26) = (   0.7500000   0.2886752  -0.1020620  )
        27           Pd  tau(  27) = (   0.8749999   0.5051815  -0.1020620  )
        28           Pd  tau(  28) = (   0.9999999   0.7216878  -0.1020620  )
        29           Pd  tau(  29) = (   0.8750000   0.0721688  -0.1020620  )
        30           Pd  tau(  30) = (   1.0000000   0.2886752  -0.1020620  )
        31           Pd  tau(  31) = (   1.1249999   0.5051815  -0.1020620  )
        32           Pd  tau(  32) = (   1.2499999   0.7216878  -0.1020620  )
        33           Pd  tau(  33) = (   0.2499759   0.1444338   0.1005662  )
        34           Pd  tau(  34) = (   0.3747803   0.3608345   0.1007267  )
        35           Pd  tau(  35) = (   0.4997418   0.5771748   0.1006538  )
        36           Pd  tau(  36) = (   0.6244070   0.7940328   0.1014893  )
        37           Pd  tau(  37) = (   0.4998021   0.1442385   0.1007050  )
        38           Pd  tau(  38) = (   0.6248927   0.3608859   0.1006809  )
        39           Pd  tau(  39) = (   0.7499644   0.5773626   0.1004192  )
        40           Pd  tau(  40) = (   0.8748712   0.7936322   0.1003535  )
        41           Pd  tau(  41) = (   0.7496699   0.1443583   0.1007040  )
        42           Pd  tau(  42) = (   0.8749026   0.3607462   0.1005408  )
        43           Pd  tau(  43) = (   0.9998085   0.5772932   0.1008298  )
        44           Pd  tau(  44) = (   1.1249545   0.7937723   0.1005274  )
        45           Pd  tau(  45) = (   0.9997895   0.1436891   0.1017645  )
        46           Pd  tau(  46) = (   1.1246824   0.3608993   0.1003761  )
        47           Pd  tau(  47) = (   1.2498218   0.5774552   0.1005258  )
        48           Pd  tau(  48) = (   1.3755177   0.7942675   0.1021305  )
        49           Pd  tau(  49) = (   0.1252190   0.2173932   0.3048383  )
        50           Pd  tau(  50) = (   0.2494781   0.4327517   0.3053617  )
        51           Pd  tau(  51) = (   0.3738622   0.6481987   0.3050749  )
        52           Pd  tau(  52) = (  -0.0014730  -0.0002513   0.3093055  )
        53           Pd  tau(  53) = (   0.3746495   0.2164840   0.3055353  )
        54           Pd  tau(  54) = (   0.4995666   0.4327473   0.3054269  )
        55           Pd  tau(  55) = (   0.6251307   0.6484007   0.3047979  )
        56           Pd  tau(  56) = (   0.2507874  -0.0000471   0.3044525  )
        57           Pd  tau(  57) = (   0.6243057   0.2166034   0.3052818  )
        58           Pd  tau(  58) = (   0.7495871   0.4330825   0.3054451  )
        59           Pd  tau(  59) = (   0.8745616   0.6493751   0.3055573  )
        60           Pd  tau(  60) = (   0.4993648  -0.0001285   0.3053810  )
        61           Pd  tau(  61) = (   0.8739912   0.2174831   0.3049740  )
        62           Pd  tau(  62) = (   0.9996072   0.4329876   0.3054501  )
        63           Pd  tau(  63) = (   1.1242780   0.6492312   0.3053433  )
        64           Pd  tau(  64) = (   0.7480583  -0.0001424   0.3051010  )
        65           O   tau(  65) = (   0.0251477  -0.0001371   0.5218015  )
        66           H   tau(  66) = (   0.0788091   0.0703427   0.5233191  )
        67           H   tau(  67) = (   0.0798033  -0.0698591   0.5231500  )

     number of k points=     5  gaussian smearing, width (Ry)=  0.0100
                       cart. coord. in units 2pi/alat
        k(    1) = (   0.0000000   0.0000000   0.0000000), wk =   0.2222222
        k(    2) = (   0.0000000   0.3849002   0.0000000), wk =   0.4444444
        k(    3) = (   0.3333333  -0.1924501   0.0000000), wk =   0.4444444
        k(    4) = (   0.3333333   0.1924501   0.0000000), wk =   0.4444444
        k(    5) = (   0.3333333  -0.5773502   0.0000000), wk =   0.4444444

     Dense  grid:  2909047 G-vectors     FFT dimensions: ( 150, 150, 320)

     Smooth grid:  1028847 G-vectors     FFT dimensions: ( 108, 108, 216)

     Estimated max dynamical RAM per process >     425.72MB

     Estimated total allocated dynamical RAM >   61303.80MB

     Initial potential from superposition of free atoms
     Check: negative starting charge=   -0.002941

     starting charge  647.96340, renormalised to  648.00000

     negative rho (up, down):  2.941E-03 0.000E+00


     %%%%%%%%%%%%%%%%%%%%%%%%%%%%%%%%%%%%%%%%%%%%%%%%%%%%%%%%%%%%%%%%%%%%%%%%
     %                                                                      %
     % You are using vdW-DF, which was implemented by the Thonhauser group. %
     % Please cite the following two papers that made this development      %
     % possible and the two reviews that describe the various versions:     %
     %                                                                      %
     %   T. Thonhauser et al., PRL 115, 136402 (2015).                      %
     %   T. Thonhauser et al., PRB 76, 125112 (2007).                       %
     %   K. Berland et al., Rep. Prog. Phys. 78, 066501 (2015).             %
     %   D.C. Langreth et al., J. Phys.: Condens. Matter 21, 084203 (2009). %
     %                                                                      %
     %                                                                      %
     % If you are calculating the stress with vdW-DF, please also cite:     %
     %                                                                      %
     %   R. Sabatini et al., J. Phys.: Condens. Matter 24, 424209 (2012).   %
     %                                                                      %
     %%%%%%%%%%%%%%%%%%%%%%%%%%%%%%%%%%%%%%%%%%%%%%%%%%%%%%%%%%%%%%%%%%%%%%%%


     Starting wfc are  582 randomized atomic wfcs

     total cpu time spent up to now is       13.3 secs

     per-process dynamical memory:   239.3 Mb

     Self-consistent Calculation

     iteration #  1     ecut=    60.00 Ry     beta=0.30
     Davidson diagonalization with overlap
     ethr =  1.00E-02,  avg # of iterations =  3.8

     Threshold (ethr) on eigenvalues was too large:
     Diagonalizing with lowered threshold

     Davidson diagonalization with overlap
     c_bands:  2 eigenvalues not converged
     ethr =  1.71E-04,  avg # of iterations = 18.2

     negative rho (up, down):  1.940E-03 0.000E+00

     total cpu time spent up to now is      109.3 secs

     total energy              =   -4372.99867186 Ry
     Harris-Foulkes estimate   =   -4374.34280874 Ry
     estimated scf accuracy    <       3.45216376 Ry

     iteration #  2     ecut=    60.00 Ry     beta=0.30
     Davidson diagonalization with overlap
     ethr =  5.33E-04,  avg # of iterations =  2.6

     negative rho (up, down):  2.973E-03 0.000E+00

     total cpu time spent up to now is      127.5 secs

     total energy              =   -4372.01329331 Ry
     Harris-Foulkes estimate   =   -4373.44495947 Ry
     estimated scf accuracy    <      10.82938853 Ry

     iteration #  3     ecut=    60.00 Ry     beta=0.30
     Davidson diagonalization with overlap
     ethr =  5.33E-04,  avg # of iterations =  4.6

     negative rho (up, down):  2.706E-03 0.000E+00

     total cpu time spent up to now is      147.9 secs

     total energy              =   -4369.36050166 Ry
     Harris-Foulkes estimate   =   -4375.66701353 Ry
     estimated scf accuracy    <     159.56682851 Ry

     iteration #  4     ecut=    60.00 Ry     beta=0.30
     Davidson diagonalization with overlap
     ethr =  5.33E-04,  avg # of iterations =  1.0

     negative rho (up, down):  2.211E-03 0.000E+00

     total cpu time spent up to now is      162.1 secs

     total energy              =   -4370.80199589 Ry
     Harris-Foulkes estimate   =   -4375.80538886 Ry
     estimated scf accuracy    <     154.45254857 Ry

     iteration #  5     ecut=    60.00 Ry     beta=0.30
     Davidson diagonalization with overlap
     ethr =  5.33E-04,  avg # of iterations =  1.0

     negative rho (up, down):  2.329E-03 0.000E+00

     total cpu time spent up to now is      176.2 secs

     total energy              =   -4372.80374662 Ry
     Harris-Foulkes estimate   =   -4373.42774857 Ry
     estimated scf accuracy    <      14.51841801 Ry

     iteration #  6     ecut=    60.00 Ry     beta=0.30
     Davidson diagonalization with overlap
     ethr =  5.33E-04,  avg # of iterations =  1.0

     negative rho (up, down):  2.348E-03 0.000E+00

     total cpu time spent up to now is      190.1 secs

     total energy              =   -4373.06537823 Ry
     Harris-Foulkes estimate   =   -4373.22608314 Ry
     estimated scf accuracy    <       2.73569119 Ry

     iteration #  7     ecut=    60.00 Ry     beta=0.30
     Davidson diagonalization with overlap
     ethr =  4.22E-04,  avg # of iterations =  1.0

     negative rho (up, down):  2.417E-03 0.000E+00

     total cpu time spent up to now is      204.1 secs

     total energy              =   -4373.14151491 Ry
     Harris-Foulkes estimate   =   -4373.19670958 Ry
     estimated scf accuracy    <       0.63920784 Ry

     iteration #  8     ecut=    60.00 Ry     beta=0.30
     Davidson diagonalization with overlap
     ethr =  9.86E-05,  avg # of iterations =  6.2

     negative rho (up, down):  2.548E-03 0.000E+00

     total cpu time spent up to now is      226.6 secs

     total energy              =   -4373.17951337 Ry
     Harris-Foulkes estimate   =   -4373.21854893 Ry
     estimated scf accuracy    <       0.51089608 Ry

     iteration #  9     ecut=    60.00 Ry     beta=0.30
     Davidson diagonalization with overlap
     ethr =  7.88E-05,  avg # of iterations =  6.8

     negative rho (up, down):  2.751E-03 0.000E+00

     total cpu time spent up to now is      250.5 secs

     total energy              =   -4373.20953446 Ry
     Harris-Foulkes estimate   =   -4373.22744241 Ry
     estimated scf accuracy    <       0.41779779 Ry

     iteration # 10     ecut=    60.00 Ry     beta=0.30
     Davidson diagonalization with overlap
     ethr =  6.45E-05,  avg # of iterations =  8.8

     negative rho (up, down):  2.803E-03 0.000E+00

     total cpu time spent up to now is      280.6 secs

     total energy              =   -4373.19864348 Ry
     Harris-Foulkes estimate   =   -4373.23112915 Ry
     estimated scf accuracy    <       0.25676885 Ry

     iteration # 11     ecut=    60.00 Ry     beta=0.30
     Davidson diagonalization with overlap
     c_bands:  4 eigenvalues not converged
     ethr =  3.96E-05,  avg # of iterations = 18.6

     negative rho (up, down):  2.256E-03 0.000E+00

     total cpu time spent up to now is      332.2 secs

     total energy              =   -4373.19293199 Ry
     Harris-Foulkes estimate   =   -4373.22304505 Ry
     estimated scf accuracy    <       0.14315717 Ry

     iteration # 12     ecut=    60.00 Ry     beta=0.30
     Davidson diagonalization with overlap
     c_bands:  3 eigenvalues not converged
     ethr =  2.21E-05,  avg # of iterations = 17.8

     negative rho (up, down):  2.250E-03 0.000E+00

     total cpu time spent up to now is      385.1 secs

     total energy              =   -4373.20265240 Ry
     Harris-Foulkes estimate   =   -4373.23192064 Ry
     estimated scf accuracy    <       0.32245176 Ry

     iteration # 13     ecut=    60.00 Ry     beta=0.30
     Davidson diagonalization with overlap
     c_bands:  1 eigenvalues not converged
     c_bands:  2 eigenvalues not converged
     ethr =  2.21E-05,  avg # of iterations = 17.8

     negative rho (up, down):  2.193E-03 0.000E+00

     total cpu time spent up to now is      432.4 secs

     total energy              =   -4373.19982699 Ry
     Harris-Foulkes estimate   =   -4373.23707229 Ry
     estimated scf accuracy    <       0.46954252 Ry

     iteration # 14     ecut=    60.00 Ry     beta=0.30
     Davidson diagonalization with overlap
     c_bands:  4 eigenvalues not converged
     c_bands:  2 eigenvalues not converged
     ethr =  2.21E-05,  avg # of iterations = 16.2

     negative rho (up, down):  2.395E-03 0.000E+00

     total cpu time spent up to now is      478.7 secs

     total energy              =   -4373.04920052 Ry
     Harris-Foulkes estimate   =   -4373.37174287 Ry
     estimated scf accuracy    <      16.66918687 Ry

     iteration # 15     ecut=    60.00 Ry     beta=0.30
     Davidson diagonalization with overlap
     c_bands:  1 eigenvalues not converged
     ethr =  2.21E-05,  avg # of iterations = 13.8

     negative rho (up, down):  2.300E-03 0.000E+00

     total cpu time spent up to now is      521.4 secs

     total energy              =   -4373.21783988 Ry
     Harris-Foulkes estimate   =   -4373.24213982 Ry
     estimated scf accuracy    <       0.88588189 Ry

     iteration # 16     ecut=    60.00 Ry     beta=0.30
     Davidson diagonalization with overlap
     c_bands:  1 eigenvalues not converged
     ethr =  2.21E-05,  avg # of iterations =  4.8

     negative rho (up, down):  2.169E-03 0.000E+00

     total cpu time spent up to now is      550.5 secs

     total energy              =   -4373.22896782 Ry
     Harris-Foulkes estimate   =   -4373.23296034 Ry
     estimated scf accuracy    <       0.02587620 Ry

     iteration # 17     ecut=    60.00 Ry     beta=0.30
     Davidson diagonalization with overlap
     c_bands:  3 eigenvalues not converged
     ethr =  3.99E-06,  avg # of iterations = 24.6

     negative rho (up, down):  2.180E-03 0.000E+00

     total cpu time spent up to now is      632.2 secs

     total energy              =   -4373.24685454 Ry
     Harris-Foulkes estimate   =   -4373.25446659 Ry
     estimated scf accuracy    <       0.10044072 Ry

     iteration # 18     ecut=    60.00 Ry     beta=0.30
     Davidson diagonalization with overlap
     c_bands:  2 eigenvalues not converged
     ethr =  3.99E-06,  avg # of iterations = 13.6

     negative rho (up, down):  2.206E-03 0.000E+00

     total cpu time spent up to now is      676.6 secs

     total energy              =   -4373.24899158 Ry
     Harris-Foulkes estimate   =   -4373.25316355 Ry
     estimated scf accuracy    <       0.06785631 Ry

     iteration # 19     ecut=    60.00 Ry     beta=0.30
     Davidson diagonalization with overlap
     ethr =  3.99E-06,  avg # of iterations =  8.4

     negative rho (up, down):  2.226E-03 0.000E+00

     total cpu time spent up to now is      720.0 secs

     total energy              =   -4373.24820660 Ry
     Harris-Foulkes estimate   =   -4373.25293901 Ry
     estimated scf accuracy    <       0.07554186 Ry

     iteration # 20     ecut=    60.00 Ry     beta=0.30
     Davidson diagonalization with overlap
     ethr =  3.99E-06,  avg # of iterations =  4.8

     negative rho (up, down):  2.258E-03 0.000E+00

     total cpu time spent up to now is      748.4 secs

     total energy              =   -4373.24856761 Ry
     Harris-Foulkes estimate   =   -4373.25345894 Ry
     estimated scf accuracy    <       0.08908842 Ry

     iteration # 21     ecut=    60.00 Ry     beta=0.30
     Davidson diagonalization with overlap
     ethr =  3.99E-06,  avg # of iterations =  4.8

     negative rho (up, down):  2.305E-03 0.000E+00

     total cpu time spent up to now is      777.0 secs

     total energy              =   -4373.25098979 Ry
     Harris-Foulkes estimate   =   -4373.25190446 Ry
     estimated scf accuracy    <       0.01020833 Ry

     iteration # 22     ecut=    60.00 Ry     beta=0.30
     Davidson diagonalization with overlap
     c_bands:  1 eigenvalues not converged
     ethr =  1.58E-06,  avg # of iterations = 12.6

     negative rho (up, down):  2.459E-03 0.000E+00

     total cpu time spent up to now is      829.2 secs

     total energy              =   -4373.25163043 Ry
     Harris-Foulkes estimate   =   -4373.25263739 Ry
     estimated scf accuracy    <       0.02567581 Ry

     iteration # 23     ecut=    60.00 Ry     beta=0.30
     Davidson diagonalization with overlap
     c_bands:  1 eigenvalues not converged
     ethr =  1.58E-06,  avg # of iterations =  7.8

     negative rho (up, down):  2.455E-03 0.000E+00

     total cpu time spent up to now is      858.3 secs

     total energy              =   -4373.25144555 Ry
     Harris-Foulkes estimate   =   -4373.25384915 Ry
     estimated scf accuracy    <       0.03165267 Ry

     iteration # 24     ecut=    60.00 Ry     beta=0.30
     Davidson diagonalization with overlap
     c_bands:  2 eigenvalues not converged
     ethr =  1.58E-06,  avg # of iterations =  4.8

     negative rho (up, down):  2.582E-03 0.000E+00

     total cpu time spent up to now is      888.1 secs

     total energy              =   -4373.25132901 Ry
     Harris-Foulkes estimate   =   -4373.25539434 Ry
     estimated scf accuracy    <       0.18523587 Ry

     iteration # 25     ecut=    60.00 Ry     beta=0.30
     Davidson diagonalization with overlap
     c_bands:  1 eigenvalues not converged
     ethr =  1.58E-06,  avg # of iterations =  4.8

     negative rho (up, down):  2.583E-03 0.000E+00

     total cpu time spent up to now is      917.3 secs

     total energy              =   -4373.25369691 Ry
     Harris-Foulkes estimate   =   -4373.25432293 Ry
     estimated scf accuracy    <       0.01551196 Ry

     iteration # 26     ecut=    60.00 Ry     beta=0.30
     Davidson diagonalization with overlap
     c_bands:  1 eigenvalues not converged
     ethr =  1.58E-06,  avg # of iterations =  4.8

     negative rho (up, down):  2.613E-03 0.000E+00

     total cpu time spent up to now is      946.9 secs

     total energy              =   -4373.25367915 Ry
     Harris-Foulkes estimate   =   -4373.25448184 Ry
     estimated scf accuracy    <       0.00962833 Ry

     iteration # 27     ecut=    60.00 Ry     beta=0.30
     Davidson diagonalization with overlap
     c_bands:  1 eigenvalues not converged
     ethr =  1.49E-06,  avg # of iterations =  4.8

     negative rho (up, down):  2.634E-03 0.000E+00

     total cpu time spent up to now is      976.3 secs

     total energy              =   -4373.25308881 Ry
     Harris-Foulkes estimate   =   -4373.25608236 Ry
     estimated scf accuracy    <       0.08262595 Ry

     iteration # 28     ecut=    60.00 Ry     beta=0.30
     Davidson diagonalization with overlap
     ethr =  1.49E-06,  avg # of iterations =  3.8

     negative rho (up, down):  2.663E-03 0.000E+00

     total cpu time spent up to now is     1001.8 secs

     total energy              =   -4373.25430094 Ry
     Harris-Foulkes estimate   =   -4373.25523421 Ry
     estimated scf accuracy    <       0.02173444 Ry

     iteration # 29     ecut=    60.00 Ry     beta=0.30
     Davidson diagonalization with overlap
     ethr =  1.49E-06,  avg # of iterations =  1.0

     negative rho (up, down):  2.688E-03 0.000E+00

     total cpu time spent up to now is     1015.7 secs

     total energy              =   -4373.25497460 Ry
     Harris-Foulkes estimate   =   -4373.25501260 Ry
     estimated scf accuracy    <       0.00262440 Ry

     iteration # 30     ecut=    60.00 Ry     beta=0.30
     Davidson diagonalization with overlap
     ethr =  4.05E-07,  avg # of iterations =  1.6

     negative rho (up, down):  2.698E-03 0.000E+00

     total cpu time spent up to now is     1031.9 secs

     total energy              =   -4373.25517183 Ry
     Harris-Foulkes estimate   =   -4373.25518048 Ry
     estimated scf accuracy    <       0.00193524 Ry

     iteration # 31     ecut=    60.00 Ry     beta=0.30
     Davidson diagonalization with overlap
     ethr =  2.99E-07,  avg # of iterations =  2.8

     negative rho (up, down):  2.761E-03 0.000E+00

     total cpu time spent up to now is     1050.9 secs

     total energy              =   -4373.25557342 Ry
     Harris-Foulkes estimate   =   -4373.25530434 Ry
     estimated scf accuracy    <       0.00062725 Ry

     iteration # 32     ecut=    60.00 Ry     beta=0.30
     Davidson diagonalization with overlap
     ethr =  9.68E-08,  avg # of iterations =  8.2

     negative rho (up, down):  2.777E-03 0.000E+00

     total cpu time spent up to now is     1087.4 secs

     total energy              =   -4373.25627556 Ry
     Harris-Foulkes estimate   =   -4373.25622556 Ry
     estimated scf accuracy    <       0.00054560 Ry

     iteration # 33     ecut=    60.00 Ry     beta=0.30
     Davidson diagonalization with overlap
     ethr =  8.42E-08,  avg # of iterations =  1.0

     negative rho (up, down):  2.783E-03 0.000E+00

     total cpu time spent up to now is     1101.5 secs

     total energy              =   -4373.25629870 Ry
     Harris-Foulkes estimate   =   -4373.25629154 Ry
     estimated scf accuracy    <       0.00037431 Ry

     iteration # 34     ecut=    60.00 Ry     beta=0.30
     Davidson diagonalization with overlap
     ethr =  5.78E-08,  avg # of iterations =  2.0

     negative rho (up, down):  2.794E-03 0.000E+00

     total cpu time spent up to now is     1119.4 secs

     total energy              =   -4373.25630921 Ry
     Harris-Foulkes estimate   =   -4373.25636089 Ry
     estimated scf accuracy    <       0.00417277 Ry

     iteration # 35     ecut=    60.00 Ry     beta=0.30
     Davidson diagonalization with overlap
     ethr =  5.78E-08,  avg # of iterations =  1.0

     negative rho (up, down):  2.814E-03 0.000E+00

     total cpu time spent up to now is     1133.8 secs

     total energy              =   -4373.25642583 Ry
     Harris-Foulkes estimate   =   -4373.25637996 Ry
     estimated scf accuracy    <       0.00057040 Ry

     iteration # 36     ecut=    60.00 Ry     beta=0.30
     Davidson diagonalization with overlap
     ethr =  5.78E-08,  avg # of iterations =  1.0

     negative rho (up, down):  2.962E-03 0.000E+00

     total cpu time spent up to now is     1147.8 secs

     total energy              =   -4373.25696554 Ry
     Harris-Foulkes estimate   =   -4373.25646408 Ry
     estimated scf accuracy    <       0.00115389 Ry

     iteration # 37     ecut=    60.00 Ry     beta=0.30
     Davidson diagonalization with overlap
     ethr =  5.78E-08,  avg # of iterations =  4.0

     negative rho (up, down):  3.020E-03 0.000E+00

     total cpu time spent up to now is     1167.4 secs

     total energy              =   -4373.25721086 Ry
     Harris-Foulkes estimate   =   -4373.25706002 Ry
     estimated scf accuracy    <       0.00113313 Ry

     iteration # 38     ecut=    60.00 Ry     beta=0.30
     Davidson diagonalization with overlap
     ethr =  5.78E-08,  avg # of iterations =  5.6

     negative rho (up, down):  3.022E-03 0.000E+00

     total cpu time spent up to now is     1190.0 secs

     total energy              =   -4373.25725115 Ry
     Harris-Foulkes estimate   =   -4373.25729042 Ry
     estimated scf accuracy    <       0.00046023 Ry

     iteration # 39     ecut=    60.00 Ry     beta=0.30
     Davidson diagonalization with overlap
     ethr =  5.78E-08,  avg # of iterations =  1.0

     negative rho (up, down):  3.007E-03 0.000E+00

     total cpu time spent up to now is     1204.0 secs

     total energy              =   -4373.25720695 Ry
     Harris-Foulkes estimate   =   -4373.25728501 Ry
     estimated scf accuracy    <       0.00018115 Ry

     iteration # 40     ecut=    60.00 Ry     beta=0.30
     Davidson diagonalization with overlap
     ethr =  2.80E-08,  avg # of iterations =  3.0

     negative rho (up, down):  3.011E-03 0.000E+00

     total cpu time spent up to now is     1225.5 secs

     total energy              =   -4373.25722906 Ry
     Harris-Foulkes estimate   =   -4373.25722121 Ry
     estimated scf accuracy    <       0.00003652 Ry

     iteration # 41     ecut=    60.00 Ry     beta=0.30
     Davidson diagonalization with overlap
     ethr =  5.64E-09,  avg # of iterations = 10.2

     negative rho (up, down):  2.998E-03 0.000E+00

     total cpu time spent up to now is     1267.4 secs

     total energy              =   -4373.25720412 Ry
     Harris-Foulkes estimate   =   -4373.25728276 Ry
     estimated scf accuracy    <       0.00007783 Ry

     iteration # 42     ecut=    60.00 Ry     beta=0.30
     Davidson diagonalization with overlap
     ethr =  5.64E-09,  avg # of iterations =  3.8

     negative rho (up, down):  3.016E-03 0.000E+00

     total cpu time spent up to now is     1287.5 secs

     total energy              =   -4373.25728026 Ry
     Harris-Foulkes estimate   =   -4373.25721368 Ry
     estimated scf accuracy    <       0.00024820 Ry

     iteration # 43     ecut=    60.00 Ry     beta=0.30
     Davidson diagonalization with overlap
     ethr =  5.64E-09,  avg # of iterations =  1.0

     negative rho (up, down):  3.016E-03 0.000E+00

     total cpu time spent up to now is     1301.7 secs

     total energy              =   -4373.25728027 Ry
     Harris-Foulkes estimate   =   -4373.25729248 Ry
     estimated scf accuracy    <       0.00032449 Ry

     iteration # 44     ecut=    60.00 Ry     beta=0.30
     Davidson diagonalization with overlap
     ethr =  5.64E-09,  avg # of iterations =  1.0

     negative rho (up, down):  3.025E-03 0.000E+00

     total cpu time spent up to now is     1315.7 secs

     total energy              =   -4373.25731307 Ry
     Harris-Foulkes estimate   =   -4373.25729871 Ry
     estimated scf accuracy    <       0.00098597 Ry

     iteration # 45     ecut=    60.00 Ry     beta=0.30
     Davidson diagonalization with overlap
     ethr =  5.64E-09,  avg # of iterations =  1.0

     negative rho (up, down):  3.035E-03 0.000E+00

     total cpu time spent up to now is     1329.6 secs

     total energy              =   -4373.25735077 Ry
     Harris-Foulkes estimate   =   -4373.25733256 Ry
     estimated scf accuracy    <       0.00035561 Ry

     iteration # 46     ecut=    60.00 Ry     beta=0.30
     Davidson diagonalization with overlap
     ethr =  5.64E-09,  avg # of iterations =  1.0

     negative rho (up, down):  3.039E-03 0.000E+00

     total cpu time spent up to now is     1343.7 secs

     total energy              =   -4373.25736074 Ry
     Harris-Foulkes estimate   =   -4373.25736972 Ry
     estimated scf accuracy    <       0.00053551 Ry

     iteration # 47     ecut=    60.00 Ry     beta=0.30
     Davidson diagonalization with overlap
     ethr =  5.64E-09,  avg # of iterations =  4.0

     negative rho (up, down):  3.043E-03 0.000E+00

     total cpu time spent up to now is     1362.6 secs

     total energy              =   -4373.25737643 Ry
     Harris-Foulkes estimate   =   -4373.25737419 Ry
     estimated scf accuracy    <       0.00009072 Ry

     iteration # 48     ecut=    60.00 Ry     beta=0.30
     Davidson diagonalization with overlap
     ethr =  5.64E-09,  avg # of iterations =  1.0

     negative rho (up, down):  3.047E-03 0.000E+00

     total cpu time spent up to now is     1376.6 secs

     total energy              =   -4373.25738441 Ry
     Harris-Foulkes estimate   =   -4373.25738255 Ry
     estimated scf accuracy    <       0.00009363 Ry

     iteration # 49     ecut=    60.00 Ry     beta=0.30
     Davidson diagonalization with overlap
     ethr =  5.64E-09,  avg # of iterations =  1.0

     negative rho (up, down):  3.064E-03 0.000E+00

     total cpu time spent up to now is     1390.5 secs

     total energy              =   -4373.25742376 Ry
     Harris-Foulkes estimate   =   -4373.25739211 Ry
     estimated scf accuracy    <       0.00016020 Ry

     iteration # 50     ecut=    60.00 Ry     beta=0.30
     Davidson diagonalization with overlap
     ethr =  5.64E-09,  avg # of iterations =  1.0

     negative rho (up, down):  3.058E-03 0.000E+00

     total cpu time spent up to now is     1404.5 secs

     total energy              =   -4373.25738773 Ry
     Harris-Foulkes estimate   =   -4373.25745715 Ry
     estimated scf accuracy    <       0.00085939 Ry

     iteration # 51     ecut=    60.00 Ry     beta=0.30
     Davidson diagonalization with overlap
     ethr =  5.64E-09,  avg # of iterations =  1.0

     negative rho (up, down):  3.073E-03 0.000E+00

     total cpu time spent up to now is     1418.5 secs

     total energy              =   -4373.25746132 Ry
     Harris-Foulkes estimate   =   -4373.25741716 Ry
     estimated scf accuracy    <       0.00003286 Ry

     iteration # 52     ecut=    60.00 Ry     beta=0.30
     Davidson diagonalization with overlap
     ethr =  5.07E-09,  avg # of iterations =  1.0

     negative rho (up, down):  3.076E-03 0.000E+00

     total cpu time spent up to now is     1432.5 secs

     total energy              =   -4373.25746435 Ry
     Harris-Foulkes estimate   =   -4373.25747458 Ry
     estimated scf accuracy    <       0.00055213 Ry

     iteration # 53     ecut=    60.00 Ry     beta=0.30
     Davidson diagonalization with overlap
     ethr =  5.07E-09,  avg # of iterations =  1.0

     negative rho (up, down):  3.079E-03 0.000E+00

     total cpu time spent up to now is     1446.5 secs

     total energy              =   -4373.25748325 Ry
     Harris-Foulkes estimate   =   -4373.25747743 Ry
     estimated scf accuracy    <       0.00006656 Ry

     iteration # 54     ecut=    60.00 Ry     beta=0.30
     Davidson diagonalization with overlap
     ethr =  5.07E-09,  avg # of iterations =  1.0

     negative rho (up, down):  3.079E-03 0.000E+00

     total cpu time spent up to now is     1460.5 secs

     total energy              =   -4373.25748409 Ry
     Harris-Foulkes estimate   =   -4373.25748700 Ry
     estimated scf accuracy    <       0.00010569 Ry

     iteration # 55     ecut=    60.00 Ry     beta=0.30
     Davidson diagonalization with overlap
     ethr =  5.07E-09,  avg # of iterations =  1.0

     negative rho (up, down):  3.081E-03 0.000E+00

     total cpu time spent up to now is     1474.6 secs

     total energy              =   -4373.25748877 Ry
     Harris-Foulkes estimate   =   -4373.25748803 Ry
     estimated scf accuracy    <       0.00008232 Ry

     iteration # 56     ecut=    60.00 Ry     beta=0.30
     Davidson diagonalization with overlap
     ethr =  5.07E-09,  avg # of iterations =  1.0

     negative rho (up, down):  3.080E-03 0.000E+00

     total cpu time spent up to now is     1488.8 secs

     total energy              =   -4373.25748353 Ry
     Harris-Foulkes estimate   =   -4373.25749627 Ry
     estimated scf accuracy    <       0.00030227 Ry

     iteration # 57     ecut=    60.00 Ry     beta=0.30
     Davidson diagonalization with overlap
     ethr =  5.07E-09,  avg # of iterations =  1.0

     negative rho (up, down):  3.084E-03 0.000E+00

     total cpu time spent up to now is     1502.9 secs

     total energy              =   -4373.25749768 Ry
     Harris-Foulkes estimate   =   -4373.25749016 Ry
     estimated scf accuracy    <       0.00002985 Ry

     iteration # 58     ecut=    60.00 Ry     beta=0.30
     Davidson diagonalization with overlap
     ethr =  4.61E-09,  avg # of iterations =  1.0

     negative rho (up, down):  3.087E-03 0.000E+00

     total cpu time spent up to now is     1516.9 secs

     total energy              =   -4373.25751083 Ry
     Harris-Foulkes estimate   =   -4373.25749892 Ry
     estimated scf accuracy    <       0.00000309 Ry

     iteration # 59     ecut=    60.00 Ry     beta=0.30
     Davidson diagonalization with overlap
     ethr =  4.77E-10,  avg # of iterations =  7.4

     negative rho (up, down):  3.090E-03 0.000E+00

     total cpu time spent up to now is     1544.2 secs

     total energy              =   -4373.25751811 Ry
     Harris-Foulkes estimate   =   -4373.25751145 Ry
     estimated scf accuracy    <       0.00000144 Ry

     iteration # 60     ecut=    60.00 Ry     beta=0.30
     Davidson diagonalization with overlap
     ethr =  2.22E-10,  avg # of iterations =  6.0

     negative rho (up, down):  3.091E-03 0.000E+00

     total cpu time spent up to now is     1579.3 secs

     total energy              =   -4373.25752427 Ry
     Harris-Foulkes estimate   =   -4373.25752015 Ry
     estimated scf accuracy    <       0.00001773 Ry

     iteration # 61     ecut=    60.00 Ry     beta=0.30
     Davidson diagonalization with overlap
     ethr =  2.22E-10,  avg # of iterations =  1.0

     negative rho (up, down):  3.091E-03 0.000E+00

     total cpu time spent up to now is     1593.2 secs

     total energy              =   -4373.25752600 Ry
     Harris-Foulkes estimate   =   -4373.25752465 Ry
     estimated scf accuracy    <       0.00000548 Ry

     iteration # 62     ecut=    60.00 Ry     beta=0.30
     Davidson diagonalization with overlap
     ethr =  2.22E-10,  avg # of iterations =  1.0

     negative rho (up, down):  3.092E-03 0.000E+00

     total cpu time spent up to now is     1607.4 secs

     total energy              =   -4373.25752933 Ry
     Harris-Foulkes estimate   =   -4373.25752614 Ry
     estimated scf accuracy    <       0.00000734 Ry

     iteration # 63     ecut=    60.00 Ry     beta=0.30
     Davidson diagonalization with overlap
     ethr =  2.22E-10,  avg # of iterations =  1.0

     negative rho (up, down):  3.094E-03 0.000E+00

     total cpu time spent up to now is     1621.5 secs

     total energy              =   -4373.25753416 Ry
     Harris-Foulkes estimate   =   -4373.25752986 Ry
     estimated scf accuracy    <       0.00001871 Ry

     iteration # 64     ecut=    60.00 Ry     beta=0.30
     Davidson diagonalization with overlap
     ethr =  2.22E-10,  avg # of iterations =  1.0

     negative rho (up, down):  3.095E-03 0.000E+00

     total cpu time spent up to now is     1635.5 secs

     total energy              =   -4373.25753363 Ry
     Harris-Foulkes estimate   =   -4373.25753585 Ry
     estimated scf accuracy    <       0.00011694 Ry

     iteration # 65     ecut=    60.00 Ry     beta=0.30
     Davidson diagonalization with overlap
     ethr =  2.22E-10,  avg # of iterations =  1.0

     negative rho (up, down):  3.095E-03 0.000E+00

     total cpu time spent up to now is     1649.4 secs

     total energy              =   -4373.25753512 Ry
     Harris-Foulkes estimate   =   -4373.25753501 Ry
     estimated scf accuracy    <       0.00001070 Ry

     iteration # 66     ecut=    60.00 Ry     beta=0.30
     Davidson diagonalization with overlap
     ethr =  2.22E-10,  avg # of iterations =  1.0

     negative rho (up, down):  3.096E-03 0.000E+00

     total cpu time spent up to now is     1663.7 secs

     total energy              =   -4373.25753694 Ry
     Harris-Foulkes estimate   =   -4373.25753550 Ry
     estimated scf accuracy    <       0.00000837 Ry

     iteration # 67     ecut=    60.00 Ry     beta=0.30
     Davidson diagonalization with overlap
     ethr =  2.22E-10,  avg # of iterations =  1.0

     negative rho (up, down):  3.097E-03 0.000E+00

     total cpu time spent up to now is     1677.7 secs

     total energy              =   -4373.25754026 Ry
     Harris-Foulkes estimate   =   -4373.25753732 Ry
     estimated scf accuracy    <       0.00001357 Ry

     iteration # 68     ecut=    60.00 Ry     beta=0.30
     Davidson diagonalization with overlap
     ethr =  2.22E-10,  avg # of iterations =  1.0

     negative rho (up, down):  3.103E-03 0.000E+00

     total cpu time spent up to now is     1691.8 secs

     total energy              =   -4373.25755520 Ry
     Harris-Foulkes estimate   =   -4373.25754075 Ry
     estimated scf accuracy    <       0.00001268 Ry

     iteration # 69     ecut=    60.00 Ry     beta=0.30
     Davidson diagonalization with overlap
     ethr =  2.22E-10,  avg # of iterations =  5.4

     negative rho (up, down):  3.104E-03 0.000E+00

     total cpu time spent up to now is     1724.5 secs

     total energy              =   -4373.25755462 Ry
     Harris-Foulkes estimate   =   -4373.25756118 Ry
     estimated scf accuracy    <       0.00018145 Ry

     iteration # 70     ecut=    60.00 Ry     beta=0.30
     Davidson diagonalization with overlap
     ethr =  2.22E-10,  avg # of iterations =  3.8

     negative rho (up, down):  3.103E-03 0.000E+00

     total cpu time spent up to now is     1744.3 secs

     total energy              =   -4373.25755795 Ry
     Harris-Foulkes estimate   =   -4373.25755948 Ry
     estimated scf accuracy    <       0.00000926 Ry

     iteration # 71     ecut=    60.00 Ry     beta=0.30
     Davidson diagonalization with overlap
     ethr =  2.22E-10,  avg # of iterations =  1.0

     negative rho (up, down):  3.103E-03 0.000E+00

     total cpu time spent up to now is     1758.2 secs

     total energy              =   -4373.25755681 Ry
     Harris-Foulkes estimate   =   -4373.25755883 Ry
     estimated scf accuracy    <       0.00001840 Ry

     iteration # 72     ecut=    60.00 Ry     beta=0.30
     Davidson diagonalization with overlap
     ethr =  2.22E-10,  avg # of iterations =  1.0

     negative rho (up, down):  3.106E-03 0.000E+00

     total cpu time spent up to now is     1772.3 secs

     total energy              =   -4373.25756257 Ry
     Harris-Foulkes estimate   =   -4373.25755751 Ry
     estimated scf accuracy    <       0.00000679 Ry

     iteration # 73     ecut=    60.00 Ry     beta=0.30
     Davidson diagonalization with overlap
     ethr =  2.22E-10,  avg # of iterations =  1.0

     negative rho (up, down):  3.106E-03 0.000E+00

     total cpu time spent up to now is     1786.7 secs

     total energy              =   -4373.25756364 Ry
     Harris-Foulkes estimate   =   -4373.25756299 Ry
     estimated scf accuracy    <       0.00000922 Ry

     iteration # 74     ecut=    60.00 Ry     beta=0.30
     Davidson diagonalization with overlap
     ethr =  2.22E-10,  avg # of iterations =  1.0

     negative rho (up, down):  3.107E-03 0.000E+00

     total cpu time spent up to now is     1800.6 secs

     total energy              =   -4373.25756609 Ry
     Harris-Foulkes estimate   =   -4373.25756435 Ry
     estimated scf accuracy    <       0.00003870 Ry

     iteration # 75     ecut=    60.00 Ry     beta=0.30
     Davidson diagonalization with overlap
     ethr =  2.22E-10,  avg # of iterations =  1.0

     negative rho (up, down):  3.108E-03 0.000E+00

     total cpu time spent up to now is     1814.7 secs

     total energy              =   -4373.25756799 Ry
     Harris-Foulkes estimate   =   -4373.25756656 Ry
     estimated scf accuracy    <       0.00000072 Ry

     iteration # 76     ecut=    60.00 Ry     beta=0.30
     Davidson diagonalization with overlap
     ethr =  1.11E-10,  avg # of iterations =  1.0

     negative rho (up, down):  3.109E-03 0.000E+00

     total cpu time spent up to now is     1828.6 secs

     total energy              =   -4373.25756957 Ry
     Harris-Foulkes estimate   =   -4373.25756803 Ry
     estimated scf accuracy    <       0.00000043 Ry

     iteration # 77     ecut=    60.00 Ry     beta=0.30
     Davidson diagonalization with overlap
     ethr =  6.62E-11,  avg # of iterations =  1.0

     negative rho (up, down):  3.109E-03 0.000E+00

     total cpu time spent up to now is     1842.7 secs

     total energy              =   -4373.25757146 Ry
     Harris-Foulkes estimate   =   -4373.25756963 Ry
     estimated scf accuracy    <       0.00000172 Ry

     iteration # 78     ecut=    60.00 Ry     beta=0.30
     Davidson diagonalization with overlap
     ethr =  6.62E-11,  avg # of iterations =  1.0

     negative rho (up, down):  3.111E-03 0.000E+00

     total cpu time spent up to now is     1856.7 secs

     total energy              =   -4373.25757507 Ry
     Harris-Foulkes estimate   =   -4373.25757151 Ry
     estimated scf accuracy    <       0.00000018 Ry

     iteration # 79     ecut=    60.00 Ry     beta=0.30
     Davidson diagonalization with overlap
     ethr =  2.71E-11,  avg # of iterations =  1.0

     negative rho (up, down):  3.111E-03 0.000E+00

     total cpu time spent up to now is     1870.7 secs

     total energy              =   -4373.25757461 Ry
     Harris-Foulkes estimate   =   -4373.25757510 Ry
     estimated scf accuracy    <       0.00000067 Ry

     iteration # 80     ecut=    60.00 Ry     beta=0.30
     Davidson diagonalization with overlap
     ethr =  2.71E-11,  avg # of iterations =  1.6

     negative rho (up, down):  3.111E-03 0.000E+00

     total cpu time spent up to now is     1886.6 secs

     total energy              =   -4373.25757616 Ry
     Harris-Foulkes estimate   =   -4373.25757463 Ry
     estimated scf accuracy    <       0.00000003 Ry

     iteration # 81     ecut=    60.00 Ry     beta=0.30
     Davidson diagonalization with overlap
     ethr =  4.47E-12,  avg # of iterations =  8.8

     negative rho (up, down):  3.112E-03 0.000E+00

     total cpu time spent up to now is     1930.4 secs

     total energy              =   -4373.25757708 Ry
     Harris-Foulkes estimate   =   -4373.25757622 Ry
     estimated scf accuracy    <       0.00000019 Ry

     iteration # 82     ecut=    60.00 Ry     beta=0.30
     Davidson diagonalization with overlap
     ethr =  4.47E-12,  avg # of iterations =  1.0

     negative rho (up, down):  3.112E-03 0.000E+00

     total cpu time spent up to now is     1944.3 secs

     total energy              =   -4373.25757746 Ry
     Harris-Foulkes estimate   =   -4373.25757708 Ry
     estimated scf accuracy    <       0.00000010 Ry

     iteration # 83     ecut=    60.00 Ry     beta=0.30
     Davidson diagonalization with overlap
     ethr =  4.47E-12,  avg # of iterations =  1.0

     negative rho (up, down):  3.112E-03 0.000E+00

     total cpu time spent up to now is     1958.3 secs

     total energy              =   -4373.25757857 Ry
     Harris-Foulkes estimate   =   -4373.25757746 Ry
     estimated scf accuracy    <       0.00000005 Ry

     iteration # 84     ecut=    60.00 Ry     beta=0.30
     Davidson diagonalization with overlap
     ethr =  4.47E-12,  avg # of iterations =  1.0

     negative rho (up, down):  3.112E-03 0.000E+00

     total cpu time spent up to now is     1972.4 secs

     total energy              =   -4373.25757850 Ry
     Harris-Foulkes estimate   =   -4373.25757858 Ry
     estimated scf accuracy    <       0.00000012 Ry

     iteration # 85     ecut=    60.00 Ry     beta=0.30
     Davidson diagonalization with overlap
     ethr =  4.47E-12,  avg # of iterations =  1.0

     negative rho (up, down):  3.113E-03 0.000E+00

     total cpu time spent up to now is     1986.3 secs

     total energy              =   -4373.25757896 Ry
     Harris-Foulkes estimate   =   -4373.25757851 Ry
     estimated scf accuracy    <       0.00000008 Ry

     iteration # 86     ecut=    60.00 Ry     beta=0.30
     Davidson diagonalization with overlap
     ethr =  4.47E-12,  avg # of iterations =  1.0

     negative rho (up, down):  3.113E-03 0.000E+00

     total cpu time spent up to now is     2000.4 secs

     total energy              =   -4373.25758010 Ry
     Harris-Foulkes estimate   =   -4373.25757896 Ry
     estimated scf accuracy    <       0.00000013 Ry

     iteration # 87     ecut=    60.00 Ry     beta=0.30
     Davidson diagonalization with overlap
     ethr =  4.47E-12,  avg # of iterations =  1.0

     negative rho (up, down):  3.114E-03 0.000E+00

     total cpu time spent up to now is     2014.4 secs

     total energy              =   -4373.25758210 Ry
     Harris-Foulkes estimate   =   -4373.25758011 Ry
     estimated scf accuracy    <       0.00000027 Ry

     iteration # 88     ecut=    60.00 Ry     beta=0.30
     Davidson diagonalization with overlap
     ethr =  4.47E-12,  avg # of iterations =  1.0

     negative rho (up, down):  3.115E-03 0.000E+00

     total cpu time spent up to now is     2028.6 secs

     total energy              =   -4373.25758314 Ry
     Harris-Foulkes estimate   =   -4373.25758212 Ry
     estimated scf accuracy    <       0.00000036 Ry

     iteration # 89     ecut=    60.00 Ry     beta=0.30
     Davidson diagonalization with overlap
     ethr =  4.47E-12,  avg # of iterations =  1.0

     negative rho (up, down):  3.117E-03 0.000E+00

     total cpu time spent up to now is     2042.7 secs

     total energy              =   -4373.25758807 Ry
     Harris-Foulkes estimate   =   -4373.25758315 Ry
     estimated scf accuracy    <       0.00000004 Ry

     iteration # 90     ecut=    60.00 Ry     beta=0.30
     Davidson diagonalization with overlap
     ethr =  4.47E-12,  avg # of iterations =  1.0

     negative rho (up, down):  3.117E-03 0.000E+00

     total cpu time spent up to now is     2056.7 secs

     total energy              =   -4373.25758795 Ry
     Harris-Foulkes estimate   =   -4373.25758808 Ry
     estimated scf accuracy    <       0.00000025 Ry

     iteration # 91     ecut=    60.00 Ry     beta=0.30
     Davidson diagonalization with overlap
     ethr =  4.47E-12,  avg # of iterations =  1.0

     negative rho (up, down):  3.116E-03 0.000E+00

     total cpu time spent up to now is     2070.7 secs

     total energy              =   -4373.25758617 Ry
     Harris-Foulkes estimate   =   -4373.25758798 Ry
     estimated scf accuracy    <       0.00000042 Ry

     iteration # 92     ecut=    60.00 Ry     beta=0.30
     Davidson diagonalization with overlap
     ethr =  4.47E-12,  avg # of iterations =  1.0

     negative rho (up, down):  3.115E-03 0.000E+00

     total cpu time spent up to now is     2084.8 secs

     total energy              =   -4373.25758524 Ry
     Harris-Foulkes estimate   =   -4373.25758622 Ry
     estimated scf accuracy    <       0.00000169 Ry

     iteration # 93     ecut=    60.00 Ry     beta=0.30
     Davidson diagonalization with overlap
     ethr =  4.47E-12,  avg # of iterations =  1.0

     negative rho (up, down):  3.116E-03 0.000E+00

     total cpu time spent up to now is     2098.7 secs

     total energy              =   -4373.25758567 Ry
     Harris-Foulkes estimate   =   -4373.25758528 Ry
     estimated scf accuracy    <       0.00000041 Ry

     iteration # 94     ecut=    60.00 Ry     beta=0.30
     Davidson diagonalization with overlap
     ethr =  4.47E-12,  avg # of iterations =  1.0

     negative rho (up, down):  3.116E-03 0.000E+00

     total cpu time spent up to now is     2112.7 secs

     total energy              =   -4373.25758563 Ry
     Harris-Foulkes estimate   =   -4373.25758569 Ry
     estimated scf accuracy    <       0.00000008 Ry

     iteration # 95     ecut=    60.00 Ry     beta=0.30
     Davidson diagonalization with overlap
     ethr =  4.47E-12,  avg # of iterations =  1.0

     negative rho (up, down):  3.116E-03 0.000E+00

     total cpu time spent up to now is     2126.6 secs

     total energy              =   -4373.25758593 Ry
     Harris-Foulkes estimate   =   -4373.25758563 Ry
     estimated scf accuracy    <       0.00000004 Ry

     iteration # 96     ecut=    60.00 Ry     beta=0.30
     Davidson diagonalization with overlap
     ethr =  4.47E-12,  avg # of iterations =  1.0

     negative rho (up, down):  3.116E-03 0.000E+00

     total cpu time spent up to now is     2140.7 secs

     total energy              =   -4373.25758604 Ry
     Harris-Foulkes estimate   =   -4373.25758594 Ry
     estimated scf accuracy    <       0.00000002 Ry

     iteration # 97     ecut=    60.00 Ry     beta=0.30
     Davidson diagonalization with overlap
     ethr =  3.39E-12,  avg # of iterations =  1.0

     negative rho (up, down):  3.116E-03 0.000E+00

     total cpu time spent up to now is     2154.7 secs

     total energy              =   -4373.25758615 Ry
     Harris-Foulkes estimate   =   -4373.25758604 Ry
     estimated scf accuracy    <       0.00000002 Ry

     iteration # 98     ecut=    60.00 Ry     beta=0.30
     Davidson diagonalization with overlap
     ethr =  3.37E-12,  avg # of iterations =  1.0

     negative rho (up, down):  3.116E-03 0.000E+00

     total cpu time spent up to now is     2168.6 secs

     End of self-consistent calculation

          k = 0.0000 0.0000 0.0000 (128591 PWs)   bands (ev):

   -26.6814 -14.3840 -11.7995 -10.9665 -10.7232 -10.3186 -10.3135 -10.3130
   -10.3123 -10.3089 -10.3081 -10.2258 -10.2236 -10.2224 -10.2001 -10.0980
   -10.0918 -10.0907 -10.0329  -9.9378  -9.9298  -9.9285  -9.7777  -9.7054
    -9.7053  -9.7047  -9.7042  -9.7030  -9.6463  -9.6418  -9.6415  -9.5973
    -9.5151  -9.5148  -9.5125  -9.5116  -9.5076  -9.5041  -9.4628  -9.4623
    -9.4566  -9.4432  -9.4429  -9.4396  -9.4392  -9.4384  -9.4301  -9.4283
    -9.4225  -9.4205  -9.4187  -9.4186  -9.3506  -9.1983  -9.1969  -9.1963
    -9.1959  -9.1946  -9.1903  -9.0309  -9.0247  -9.0240  -9.0233  -9.0229
    -9.0209  -8.9999  -8.9996  -8.9960  -8.9916  -8.9902  -8.9883  -8.9860
    -8.9842  -8.9508  -8.8806  -8.8787  -8.8771  -8.8768  -8.8735  -8.8709
    -8.6818  -8.6813  -8.6808  -8.6807  -8.6804  -8.6637  -8.5724  -8.5674
    -8.5669  -8.5656  -8.5654  -8.5536  -8.5297  -8.5288  -8.5282  -8.5273
    -8.5258  -8.5238  -8.5069  -8.5042  -8.5029  -8.5008  -8.4992  -8.4843
    -8.2960  -8.2949  -8.2912  -8.2909  -8.2908  -8.2760  -8.2080  -8.2045
    -8.1963  -8.1460  -8.1430  -8.1410  -8.1352  -8.1343  -8.1334  -8.1033
    -8.1016  -8.0981  -8.0062  -7.9526  -7.9524  -7.9128  -7.9087  -7.9081
    -7.9043  -7.9029  -7.9022  -7.8978  -7.8919  -7.8914  -7.8875  -7.8870
    -7.8842  -7.8649  -7.8647  -7.8341  -7.7598  -7.7587  -7.7569  -7.6721
    -7.6697  -7.6658  -7.6642  -7.6636  -7.6572  -7.5822  -7.5820  -7.5049
    -7.5030  -7.4915  -7.4853  -7.4832  -7.4814  -7.4804  -7.4788  -7.4781
    -7.4778  -7.4769  -7.4737  -7.4710  -7.4689  -7.3763  -7.3666  -7.3649
    -7.3547  -7.3524  -7.3509  -7.3476  -7.3466  -7.3419  -7.3407  -7.3395
    -7.3375  -7.3305  -7.3280  -7.3251  -7.3203  -7.3198  -7.3170  -7.2738
    -7.2729  -7.2684  -7.2622  -7.2616  -7.2537  -7.1712  -7.1664  -7.1652
    -7.1626  -7.1528  -7.1476  -7.0599  -7.0557  -7.0529  -7.0507  -7.0430
    -7.0394  -7.0079  -7.0067  -6.9852  -6.9460  -6.9443  -6.9434  -6.9422
    -6.9420  -6.9375  -6.9009  -6.8998  -6.8977  -6.8690  -6.8488  -6.8478
    -6.8466  -6.8448  -6.8440  -6.8284  -6.7401  -6.7392  -6.7360  -6.7353
    -6.7329  -6.7311  -6.6293  -6.6250  -6.6226  -6.6216  -6.6206  -6.5972
    -6.5804  -6.5780  -6.5399  -6.4846  -6.4814  -6.4793  -6.4715  -6.4685
    -6.4682  -6.4485  -6.4441  -6.3902  -6.3853  -6.3722  -6.3698  -6.3689
    -6.3686  -6.3036  -6.2979  -6.2959  -6.2952  -6.2949  -6.2924  -6.2748
    -6.2724  -6.2701  -6.2636  -6.2545  -6.2541  -6.1906  -6.1877  -6.1208
    -6.1188  -6.1177  -6.1156  -6.1141  -6.1025  -6.0731  -6.0725  -6.0627
    -6.0623  -6.0610  -6.0608  -6.0129  -6.0069  -6.0031  -6.0009  -5.9994
    -5.9823  -5.9819  -5.9721  -5.8926  -5.7498  -5.7479  -5.7252  -5.7091
    -5.7053  -5.6906  -5.6886  -5.6872  -5.6866  -5.6618  -5.6607  -5.5092
    -5.5059  -5.5035  -5.5011  -5.5007  -5.4703  -5.4187  -5.4181  -5.4134
    -5.3482  -5.3468  -5.3327  -5.3313  -5.3291  -5.2882  -5.2878  -5.2769
    -5.2755  -5.2749  -5.2743  -5.2602  -5.2582  -5.2579  -5.2561  -5.2552
    -5.2551  -5.2549  -5.2526  -5.2419  -5.1309  -5.1306  -5.1304  -5.0881
    -5.0876  -5.0872  -5.0855  -5.0829  -5.0803  -4.9554  -4.9551  -4.9483
    -4.9274  -4.9269  -4.9227  -4.8230  -4.4434  -4.4337  -4.4222  -4.4189
    -4.4154  -4.2742  -3.8535  -3.3332  -3.3316  -3.3255  -2.8086  -2.8078
    -2.8074  -2.8053  -2.8042  -2.8041  -2.3832  -2.3691  -2.3099  -2.2992
    -2.2895  -2.2241  -2.2049  -2.2011  -2.1921  -2.1909  -2.1862  -2.1323
    -2.0904  -2.0894  -2.0854  -1.5491  -1.5411  -1.5379  -1.4645  -1.4625
    -1.4598  -1.0266  -0.9584  -0.9342  -0.9157  -0.9129  -0.8998  -0.8451
    -0.6610  -0.6242  -0.5215  -0.5028  -0.4872

          k = 0.0000 0.3849 0.0000 (128553 PWs)   bands (ev):

   -26.6814 -14.3840 -11.5857 -11.0103 -10.9587 -10.5221 -10.5039 -10.5012
   -10.1335 -10.0821 -10.0809 -10.0520 -10.0358 -10.0192 -10.0102  -9.9594
    -9.9539  -9.9523  -9.9491  -9.8889  -9.8499  -9.8344  -9.8313  -9.8282
    -9.7597  -9.7493  -9.7136  -9.6407  -9.6330  -9.6271  -9.6230  -9.6136
    -9.6093  -9.5934  -9.5866  -9.5854  -9.5753  -9.5489  -9.5355  -9.5266
    -9.5089  -9.5027  -9.5010  -9.4909  -9.4894  -9.4701  -9.4197  -9.4119
    -9.3859  -9.3771  -9.3705  -9.3678  -9.3492  -9.3251  -9.3240  -9.3216
    -9.3115  -9.2943  -9.2856  -9.1678  -9.1484  -9.1425  -9.1408  -9.1376
    -9.1319  -9.1281  -9.0601  -9.0555  -9.0463  -9.0433  -8.9411  -8.9328
    -8.9248  -8.9072  -8.9059  -8.9023  -8.8949  -8.8639  -8.8586  -8.8036
    -8.8014  -8.7825  -8.7775  -8.7334  -8.7318  -8.7301  -8.7225  -8.7161
    -8.6886  -8.6827  -8.6413  -8.6356  -8.5322  -8.5299  -8.5224  -8.5064
    -8.5004  -8.4942  -8.4872  -8.4697  -8.4653  -8.4246  -8.4197  -8.3681
    -8.3641  -8.2958  -8.2908  -8.2820  -8.2684  -8.1994  -8.1957  -8.1868
    -8.1487  -8.1243  -8.1221  -8.1051  -8.1007  -8.0933  -8.0623  -8.0333
    -8.0245  -8.0221  -8.0191  -8.0157  -7.9989  -7.9486  -7.9449  -7.9273
    -7.9246  -7.9186  -7.9099  -7.8593  -7.8524  -7.8506  -7.8485  -7.8134
    -7.7887  -7.7772  -7.7730  -7.7683  -7.7608  -7.7551  -7.7263  -7.7245
    -7.7140  -7.6868  -7.6801  -7.6758  -7.6702  -7.6586  -7.6558  -7.6512
    -7.6451  -7.6412  -7.6289  -7.6240  -7.5964  -7.5879  -7.5772  -7.5590
    -7.5518  -7.5370  -7.5302  -7.5283  -7.5245  -7.5218  -7.4639  -7.4578
    -7.4544  -7.4302  -7.4266  -7.4246  -7.4232  -7.3868  -7.3817  -7.3691
    -7.3446  -7.3386  -7.3316  -7.3258  -7.2943  -7.2925  -7.1835  -7.1808
    -7.1736  -7.1708  -7.1651  -7.1630  -7.1540  -7.1464  -7.1177  -7.1113
    -7.1105  -7.0965  -7.0946  -7.0824  -7.0763  -7.0632  -7.0549  -7.0460
    -7.0385  -7.0293  -7.0027  -6.9421  -6.9366  -6.8775  -6.8605  -6.8510
    -6.8387  -6.8268  -6.8226  -6.8164  -6.8108  -6.8083  -6.8017  -6.7981
    -6.7729  -6.7664  -6.7567  -6.7540  -6.7459  -6.7420  -6.7107  -6.6148
    -6.6127  -6.6047  -6.5984  -6.5913  -6.5608  -6.5566  -6.5440  -6.5416
    -6.5322  -6.5285  -6.5263  -6.5105  -6.4789  -6.4660  -6.3828  -6.3780
    -6.3391  -6.3358  -6.3193  -6.3165  -6.2501  -6.2404  -6.2375  -6.2361
    -6.2235  -6.2164  -6.2134  -6.2024  -6.1798  -6.1732  -6.1446  -6.1044
    -6.1001  -6.0968  -6.0909  -6.0691  -6.0522  -6.0494  -6.0289  -6.0257
    -5.9996  -5.9950  -5.9829  -5.9813  -5.9780  -5.9670  -5.9433  -5.9383
    -5.9288  -5.9265  -5.9186  -5.9061  -5.9035  -5.8876  -5.8845  -5.8448
    -5.8292  -5.7500  -5.7421  -5.7371  -5.7250  -5.7225  -5.6876  -5.6750
    -5.6733  -5.6692  -5.6634  -5.5882  -5.5817  -5.5517  -5.5501  -5.5467
    -5.5370  -5.5218  -5.5144  -5.5135  -5.5099  -5.5026  -5.4962  -5.4900
    -5.4676  -5.4378  -5.4229  -5.4194  -5.4131  -5.4079  -5.4065  -5.4051
    -5.3938  -5.3916  -5.3882  -5.3861  -5.3689  -5.3559  -5.3517  -5.3496
    -5.3235  -5.3181  -5.3007  -5.2796  -5.2711  -5.2572  -5.2454  -5.2357
    -5.2322  -5.2304  -5.2241  -5.2189  -5.2179  -5.1511  -5.0929  -5.0881
    -5.0840  -5.0740  -5.0663  -5.0523  -4.6166  -4.5699  -4.4775  -4.3409
    -4.3403  -4.2598  -3.9704  -3.9597  -3.8135  -3.7690  -3.6964  -3.5321
    -3.3270  -3.1581  -3.0856  -3.0810  -2.8684  -2.8648  -2.7038  -2.6430
    -2.6250  -2.5662  -2.4046  -2.3112  -2.3052  -2.2650  -2.2617  -1.9121
    -1.6354  -1.5516  -1.4869  -1.4764  -1.1954  -1.1405  -1.0529  -1.0426
    -0.9998  -0.9991  -0.9584  -0.6760  -0.5366  -0.4404  -0.3569  -0.3521
    -0.3162  -0.2945  -0.2609  -0.2464  -0.1026

          k = 0.3333-0.1925 0.0000 (128553 PWs)   bands (ev):

   -26.6814 -14.3840 -11.5859 -11.0155 -10.9528 -10.5218 -10.5038 -10.5024
   -10.1341 -10.0836 -10.0789 -10.0544 -10.0353 -10.0193 -10.0092  -9.9573
    -9.9540  -9.9517  -9.9491  -9.8886  -9.8501  -9.8330  -9.8318  -9.8291
    -9.7614  -9.7484  -9.7142  -9.6415  -9.6334  -9.6267  -9.6228  -9.6130
    -9.6098  -9.5901  -9.5860  -9.5853  -9.5738  -9.5459  -9.5351  -9.5337
    -9.5089  -9.5034  -9.5013  -9.4927  -9.4892  -9.4693  -9.4198  -9.4110
    -9.3867  -9.3778  -9.3712  -9.3677  -9.3513  -9.3255  -9.3241  -9.3214
    -9.3107  -9.2945  -9.2851  -9.1686  -9.1486  -9.1426  -9.1409  -9.1347
    -9.1319  -9.1289  -9.0602  -9.0558  -9.0463  -9.0432  -8.9418  -8.9346
    -8.9236  -8.9065  -8.9034  -8.9022  -8.8949  -8.8644  -8.8577  -8.8032
    -8.7992  -8.7827  -8.7781  -8.7335  -8.7320  -8.7298  -8.7226  -8.7156
    -8.6889  -8.6810  -8.6420  -8.6323  -8.5325  -8.5303  -8.5219  -8.5059
    -8.5004  -8.4946  -8.4873  -8.4716  -8.4681  -8.4240  -8.4213  -8.3685
    -8.3607  -8.2966  -8.2959  -8.2819  -8.2692  -8.1994  -8.1957  -8.1817
    -8.1480  -8.1239  -8.1218  -8.1049  -8.1000  -8.0902  -8.0622  -8.0337
    -8.0244  -8.0227  -8.0197  -8.0174  -7.9954  -7.9487  -7.9435  -7.9282
    -7.9233  -7.9193  -7.9102  -7.8594  -7.8535  -7.8510  -7.8500  -7.8134
    -7.7870  -7.7760  -7.7736  -7.7675  -7.7610  -7.7552  -7.7280  -7.7235
    -7.7150  -7.6866  -7.6812  -7.6748  -7.6704  -7.6602  -7.6568  -7.6514
    -7.6475  -7.6414  -7.6275  -7.6242  -7.5975  -7.5857  -7.5813  -7.5585
    -7.5520  -7.5377  -7.5314  -7.5287  -7.5248  -7.5226  -7.4623  -7.4598
    -7.4546  -7.4302  -7.4253  -7.4237  -7.4224  -7.3856  -7.3805  -7.3693
    -7.3445  -7.3407  -7.3311  -7.3268  -7.2954  -7.2913  -7.1837  -7.1815
    -7.1726  -7.1707  -7.1673  -7.1625  -7.1546  -7.1455  -7.1183  -7.1125
    -7.1104  -7.0968  -7.0943  -7.0838  -7.0757  -7.0639  -7.0599  -7.0460
    -7.0366  -7.0224  -7.0028  -6.9425  -6.9385  -6.8785  -6.8602  -6.8531
    -6.8400  -6.8293  -6.8221  -6.8146  -6.8109  -6.8063  -6.8013  -6.7971
    -6.7726  -6.7676  -6.7563  -6.7554  -6.7457  -6.7426  -6.7047  -6.6150
    -6.6113  -6.6043  -6.6009  -6.5914  -6.5609  -6.5534  -6.5436  -6.5400
    -6.5334  -6.5287  -6.5272  -6.5099  -6.4796  -6.4662  -6.3823  -6.3783
    -6.3386  -6.3353  -6.3202  -6.3183  -6.2500  -6.2415  -6.2375  -6.2357
    -6.2237  -6.2175  -6.2134  -6.2025  -6.1813  -6.1739  -6.1414  -6.1038
    -6.1011  -6.0965  -6.0891  -6.0698  -6.0519  -6.0467  -6.0290  -6.0254
    -5.9998  -5.9946  -5.9843  -5.9808  -5.9774  -5.9653  -5.9439  -5.9373
    -5.9280  -5.9269  -5.9213  -5.9058  -5.9033  -5.8875  -5.8868  -5.8450
    -5.8303  -5.7504  -5.7400  -5.7374  -5.7251  -5.7212  -5.6883  -5.6753
    -5.6746  -5.6692  -5.6636  -5.5879  -5.5819  -5.5521  -5.5513  -5.5466
    -5.5376  -5.5212  -5.5145  -5.5136  -5.5103  -5.5034  -5.4966  -5.4898
    -5.4669  -5.4375  -5.4226  -5.4200  -5.4134  -5.4083  -5.4071  -5.4042
    -5.3942  -5.3908  -5.3884  -5.3862  -5.3691  -5.3553  -5.3511  -5.3499
    -5.3219  -5.3171  -5.3002  -5.2792  -5.2708  -5.2572  -5.2457  -5.2354
    -5.2314  -5.2297  -5.2231  -5.2184  -5.2179  -5.1512  -5.0930  -5.0886
    -5.0845  -5.0750  -5.0669  -5.0542  -4.6151  -4.5668  -4.4785  -4.3408
    -4.3400  -4.2608  -3.9705  -3.9581  -3.8139  -3.7699  -3.6944  -3.5330
    -3.3327  -3.1529  -3.0847  -3.0817  -2.8684  -2.8654  -2.6876  -2.6561
    -2.6217  -2.5682  -2.4054  -2.3118  -2.3076  -2.2658  -2.2632  -1.9209
    -1.6141  -1.5653  -1.4881  -1.4749  -1.2184  -1.0814  -1.0603  -1.0369
    -1.0084  -0.9981  -0.9953  -0.6876  -0.5114  -0.4495  -0.3616  -0.3529
    -0.3322  -0.2783  -0.2596  -0.2464  -0.0827

          k = 0.3333 0.1925 0.0000 (128553 PWs)   bands (ev):

   -26.6814 -14.3840 -11.5858 -11.0153 -10.9528 -10.5219 -10.5039 -10.5028
   -10.1335 -10.0811 -10.0805 -10.0468 -10.0383 -10.0177 -10.0096  -9.9631
    -9.9546  -9.9524  -9.9498  -9.8879  -9.8512  -9.8351  -9.8294  -9.8281
    -9.7533  -9.7492  -9.7232  -9.6421  -9.6322  -9.6271  -9.6233  -9.6139
    -9.6091  -9.5963  -9.5874  -9.5853  -9.5742  -9.5550  -9.5360  -9.5193
    -9.5095  -9.5019  -9.5009  -9.4915  -9.4895  -9.4612  -9.4201  -9.4109
    -9.3846  -9.3797  -9.3717  -9.3674  -9.3493  -9.3261  -9.3241  -9.3217
    -9.3159  -9.2949  -9.2819  -9.1690  -9.1482  -9.1425  -9.1404  -9.1366
    -9.1330  -9.1281  -9.0605  -9.0548  -9.0473  -9.0432  -8.9413  -8.9404
    -8.9197  -8.9067  -8.9059  -8.9030  -8.8921  -8.8636  -8.8569  -8.8033
    -8.8016  -8.7828  -8.7817  -8.7327  -8.7317  -8.7280  -8.7226  -8.7128
    -8.6886  -8.6847  -8.6414  -8.6372  -8.5312  -8.5282  -8.5222  -8.5073
    -8.5007  -8.4940  -8.4858  -8.4707  -8.4658  -8.4239  -8.4213  -8.3694
    -8.3619  -8.2957  -8.2906  -8.2820  -8.2682  -8.1993  -8.1964  -8.1867
    -8.1498  -8.1236  -8.1229  -8.1065  -8.1001  -8.0942  -8.0623  -8.0327
    -8.0234  -8.0222  -8.0195  -8.0172  -8.0004  -7.9521  -7.9468  -7.9276
    -7.9209  -7.9183  -7.9082  -7.8580  -7.8535  -7.8493  -7.8467  -7.8137
    -7.7880  -7.7767  -7.7737  -7.7687  -7.7606  -7.7545  -7.7275  -7.7256
    -7.7126  -7.6869  -7.6807  -7.6771  -7.6697  -7.6548  -7.6540  -7.6496
    -7.6441  -7.6401  -7.6307  -7.6250  -7.5947  -7.5884  -7.5788  -7.5590
    -7.5513  -7.5358  -7.5300  -7.5279  -7.5241  -7.5206  -7.4619  -7.4579
    -7.4543  -7.4292  -7.4283  -7.4253  -7.4241  -7.3903  -7.3849  -7.3696
    -7.3429  -7.3396  -7.3319  -7.3258  -7.2940  -7.2918  -7.1847  -7.1830
    -7.1726  -7.1692  -7.1653  -7.1627  -7.1529  -7.1428  -7.1173  -7.1118
    -7.1105  -7.0968  -7.0932  -7.0816  -7.0761  -7.0625  -7.0573  -7.0459
    -7.0362  -7.0285  -7.0028  -6.9429  -6.9358  -6.8775  -6.8610  -6.8530
    -6.8393  -6.8280  -6.8230  -6.8168  -6.8110  -6.8090  -6.8030  -6.7989
    -6.7750  -6.7656  -6.7558  -6.7515  -6.7459  -6.7443  -6.7152  -6.6156
    -6.6114  -6.6028  -6.5991  -6.5910  -6.5599  -6.5530  -6.5446  -6.5428
    -6.5328  -6.5288  -6.5256  -6.5127  -6.4803  -6.4650  -6.3842  -6.3790
    -6.3379  -6.3364  -6.3199  -6.3165  -6.2519  -6.2390  -6.2370  -6.2347
    -6.2241  -6.2165  -6.2143  -6.1987  -6.1779  -6.1716  -6.1462  -6.1037
    -6.1008  -6.0976  -6.0907  -6.0676  -6.0537  -6.0516  -6.0291  -6.0256
    -6.0005  -5.9946  -5.9845  -5.9799  -5.9783  -5.9683  -5.9442  -5.9402
    -5.9277  -5.9272  -5.9149  -5.9063  -5.9046  -5.8881  -5.8812  -5.8451
    -5.8272  -5.7499  -5.7429  -5.7378  -5.7249  -5.7230  -5.6887  -5.6752
    -5.6713  -5.6694  -5.6638  -5.5877  -5.5820  -5.5502  -5.5493  -5.5466
    -5.5352  -5.5228  -5.5147  -5.5127  -5.5092  -5.5023  -5.4965  -5.4909
    -5.4688  -5.4386  -5.4229  -5.4199  -5.4120  -5.4076  -5.4053  -5.4038
    -5.3946  -5.3929  -5.3877  -5.3860  -5.3686  -5.3570  -5.3516  -5.3504
    -5.3238  -5.3180  -5.3025  -5.2797  -5.2710  -5.2576  -5.2459  -5.2357
    -5.2334  -5.2321  -5.2261  -5.2191  -5.2181  -5.1509  -5.0947  -5.0877
    -5.0820  -5.0726  -5.0648  -5.0487  -4.6164  -4.5745  -4.4722  -4.3410
    -4.3404  -4.2607  -3.9704  -3.9578  -3.8123  -3.7684  -3.6973  -3.5324
    -3.3319  -3.1527  -3.0852  -3.0845  -2.8687  -2.8658  -2.6881  -2.6568
    -2.6213  -2.5659  -2.4080  -2.3111  -2.3067  -2.2651  -2.2626  -1.9201
    -1.6144  -1.5643  -1.4852  -1.4748  -1.2165  -1.0818  -1.0618  -1.0354
    -1.0090  -0.9982  -0.9956  -0.6878  -0.5115  -0.4503  -0.3599  -0.3518
    -0.3324  -0.2781  -0.2603  -0.2459  -0.0808

          k = 0.3333-0.5774 0.0000 (128628 PWs)   bands (ev):

   -26.6814 -14.3840 -11.1884 -11.1841 -11.1823 -10.9573 -10.1808 -10.1417
   -10.1396  -9.9204  -9.9113  -9.9101  -9.9095  -9.9084  -9.9051  -9.8914
    -9.8730  -9.8722  -9.8711  -9.8704  -9.8692  -9.8685  -9.8654  -9.8642
    -9.8386  -9.8361  -9.8329  -9.7534  -9.7314  -9.7299  -9.6878  -9.6620
    -9.6603  -9.6599  -9.6565  -9.6538  -9.6475  -9.6392  -9.6363  -9.5878
    -9.5734  -9.5709  -9.5516  -9.4962  -9.4955  -9.4728  -9.3795  -9.3792
    -9.3726  -9.3702  -9.3686  -9.3680  -9.3672  -9.3665  -9.3217  -9.2476
    -9.2066  -9.2046  -9.1719  -9.1701  -9.1693  -9.1423  -9.1414  -9.1402
    -9.1386  -9.1379  -9.1240  -9.0819  -9.0801  -9.0790  -9.0313  -9.0299
    -9.0286  -8.9291  -8.9288  -8.9197  -8.8597  -8.8584  -8.8494  -8.8265
    -8.8241  -8.8219  -8.8214  -8.8207  -8.8199  -8.8188  -8.8164  -8.7910
    -8.7732  -8.7685  -8.6161  -8.6156  -8.6105  -8.5473  -8.5446  -8.5385
    -8.5193  -8.4227  -8.3893  -8.3885  -8.3837  -8.3195  -8.3170  -8.3130
    -8.2518  -8.2511  -8.2499  -8.2440  -8.2407  -8.2392  -8.2380  -8.2366
    -8.2289  -8.2045  -8.2036  -8.1988  -8.1709  -8.1705  -8.1658  -7.9431
    -7.9420  -7.9414  -7.9324  -7.9243  -7.9200  -7.8911  -7.8873  -7.8614
    -7.8595  -7.8584  -7.8556  -7.8546  -7.8530  -7.8456  -7.8450  -7.8438
    -7.8353  -7.8301  -7.8286  -7.7725  -7.7704  -7.7671  -7.7085  -7.7076
    -7.7055  -7.6946  -7.6904  -7.6897  -7.6876  -7.6848  -7.6812  -7.6755
    -7.6723  -7.6703  -7.6111  -7.6101  -7.6080  -7.5832  -7.5813  -7.5654
    -7.5288  -7.5285  -7.5269  -7.5257  -7.5238  -7.5216  -7.5199  -7.5190
    -7.5185  -7.4854  -7.4827  -7.4819  -7.4700  -7.4682  -7.4541  -7.4433
    -7.4361  -7.4192  -7.4136  -7.3910  -7.3890  -7.3800  -7.3280  -7.3238
    -7.3223  -7.2336  -7.2307  -7.2218  -7.1605  -7.1503  -7.1492  -7.1334
    -7.1282  -7.1262  -7.1253  -7.1237  -7.1085  -7.0995  -7.0941  -7.0927
    -6.8609  -6.8564  -6.8487  -6.7586  -6.7552  -6.7496  -6.7387  -6.7362
    -6.7346  -6.7336  -6.7317  -6.7305  -6.7019  -6.6947  -6.6801  -6.6732
    -6.6711  -6.6646  -6.6625  -6.5876  -6.5846  -6.5801  -6.5423  -6.5396
    -6.5367  -6.5325  -6.5312  -6.5282  -6.5272  -6.5241  -6.5213  -6.5206
    -6.5176  -6.4939  -6.4415  -6.4294  -6.4143  -6.4122  -6.4074  -6.3607
    -6.3584  -6.3554  -6.2569  -6.2476  -6.2419  -6.1892  -6.1874  -6.1840
    -6.1817  -6.1782  -6.1770  -6.1558  -6.1466  -6.1427  -6.1386  -6.1312
    -6.1277  -6.1266  -6.1254  -6.1115  -6.0150  -6.0110  -5.9994  -5.9534
    -5.9489  -5.9447  -5.9201  -5.9161  -5.9145  -5.9126  -5.9093  -5.8924
    -5.8702  -5.8699  -5.8645  -5.8377  -5.8265  -5.8248  -5.8216  -5.8200
    -5.8146  -5.7834  -5.7771  -5.7751  -5.7733  -5.7724  -5.7608  -5.7423
    -5.7119  -5.7081  -5.6808  -5.6205  -5.6184  -5.6052  -5.5075  -5.5021
    -5.4996  -5.4992  -5.4973  -5.4959  -5.4825  -5.4779  -5.4746  -5.4539
    -5.4507  -5.4481  -5.4466  -5.4447  -5.4359  -5.4351  -5.4318  -5.4280
    -5.4245  -5.4228  -5.4179  -5.4159  -5.4150  -5.4071  -5.3954  -5.3934
    -5.3918  -5.3874  -5.3860  -5.3764  -5.3361  -5.3326  -5.3067  -5.2104
    -5.2083  -5.2040  -5.2031  -5.2017  -5.2003  -5.1880  -5.1820  -5.1769
    -5.1740  -5.1731  -5.0788  -4.5120  -4.5103  -4.5084  -4.5046  -4.5038
    -4.5026  -4.0659  -4.0591  -4.0562  -4.0536  -4.0521  -4.0470  -3.8495
    -3.8433  -3.7899  -3.6232  -3.6006  -3.5298  -2.6763  -2.6608  -2.6476
    -2.6471  -2.6422  -2.5641  -2.3226  -2.2376  -2.2030  -1.7297  -1.7254
    -1.6354  -1.5163  -1.5143  -1.5112  -0.8717  -0.8650  -0.8611  -0.5936
    -0.5277  -0.4530  -0.4150  -0.4085  -0.4000  -0.3670  -0.3617  -0.3557
    -0.2656  -0.2490   0.0094   0.0147   0.0195

     the Fermi energy is    -5.2696 ev

!    total energy              =   -4373.25758698 Ry
     Harris-Foulkes estimate   =   -4373.25758615 Ry
     estimated scf accuracy    <          6.9E-09 Ry

     The total energy is the sum of the following terms:

     one-electron contribution = -514307.60701335 Ry
     hartree contribution      =  257462.79978365 Ry
     xc contribution           =   -1393.30933631 Ry
     ewald contribution        =  253864.97253415 Ry
     smearing contrib. (-TS)   =      -0.11355513 Ry
     pot.stat. contrib. (-muN) =       0.00000000 Ry

     convergence has been achieved in  98 iterations

     negative rho (up, down):  3.116E-03 0.000E+00

     Forces acting on atoms (cartesian axes, Ry/au):

     atom    1 type  1   force =     0.00005261    0.00001606   -0.00143466
     atom    2 type  1   force =     0.00017060    0.00001474   -0.00076998
     atom    3 type  1   force =    -0.00014222    0.00011164   -0.00068454
     atom    4 type  1   force =     0.00014416   -0.00018820   -0.00080290
     atom    5 type  1   force =     0.00012096    0.00006170   -0.00086995
     atom    6 type  1   force =    -0.00002455   -0.00006210   -0.00085228
     atom    7 type  1   force =     0.00006480    0.00011972   -0.00087135
     atom    8 type  1   force =     0.00006993   -0.00015933   -0.00091037
     atom    9 type  1   force =     0.00001112   -0.00019726   -0.00072331
     atom   10 type  1   force =     0.00013276   -0.00002068   -0.00091313
     atom   11 type  1   force =     0.00023239    0.00013619   -0.00076721
     atom   12 type  1   force =     0.00052349   -0.00033231   -0.00160574
     atom   13 type  1   force =    -0.00009321    0.00015956   -0.00084481
     atom   14 type  1   force =    -0.00013561    0.00010130   -0.00092112
     atom   15 type  1   force =    -0.00002646    0.00075711   -0.00159192
     atom   16 type  1   force =    -0.00072443   -0.00040436   -0.00162050
     atom   17 type  1   force =    -0.00087410   -0.00036427    0.00264748
     atom   18 type  1   force =     0.00007906    0.00010101    0.00028182
     atom   19 type  1   force =    -0.00006209   -0.00005509    0.00030370
     atom   20 type  1   force =    -0.00034429    0.00093199    0.00288393
     atom   21 type  1   force =     0.00000996    0.00012774    0.00036499
     atom   22 type  1   force =    -0.00012007   -0.00001691    0.00072878
     atom   23 type  1   force =    -0.00027857   -0.00009491    0.00064197
     atom   24 type  1   force =    -0.00044680    0.00020709    0.00032705
     atom   25 type  1   force =     0.00003588    0.00010562    0.00049752
     atom   26 type  1   force =    -0.00014298   -0.00019773    0.00064376
     atom   27 type  1   force =     0.00027377   -0.00009226    0.00070857
     atom   28 type  1   force =     0.00025571   -0.00020981    0.00067564
     atom   29 type  1   force =     0.00076602   -0.00062603    0.00308556
     atom   30 type  1   force =    -0.00011274   -0.00068339    0.00073552
     atom   31 type  1   force =    -0.00005042    0.00027583    0.00040445
     atom   32 type  1   force =     0.00088675    0.00052516    0.00143991
     atom   33 type  1   force =    -0.00005478   -0.00002747   -0.00008896
     atom   34 type  1   force =    -0.00002437    0.00000625    0.00005448
     atom   35 type  1   force =    -0.00000075    0.00002643   -0.00007324
     atom   36 type  1   force =     0.00003693   -0.00003183    0.00008790
     atom   37 type  1   force =    -0.00001173   -0.00001179    0.00005180
     atom   38 type  1   force =    -0.00001838    0.00000742    0.00005883
     atom   39 type  1   force =    -0.00004830   -0.00005161    0.00003810
     atom   40 type  1   force =     0.00003004    0.00005969    0.00007490
     atom   41 type  1   force =     0.00002085   -0.00001087   -0.00006481
     atom   42 type  1   force =    -0.00005542   -0.00001290    0.00002032
     atom   43 type  1   force =    -0.00002441    0.00000284    0.00002262
     atom   44 type  1   force =    -0.00004006    0.00003462    0.00004874
     atom   45 type  1   force =    -0.00001913    0.00002209    0.00013367
     atom   46 type  1   force =     0.00006801    0.00002181    0.00003457
     atom   47 type  1   force =     0.00000856   -0.00006770    0.00002998
     atom   48 type  1   force =     0.00000436    0.00002322    0.00022791
     atom   49 type  1   force =    -0.00000670    0.00006021   -0.00042889
     atom   50 type  1   force =    -0.00000081   -0.00002094   -0.00015042
     atom   51 type  1   force =    -0.00001562    0.00000302   -0.00014535
     atom   52 type  1   force =     0.00020808   -0.00002286    0.00200827
     atom   53 type  1   force =    -0.00005553   -0.00004326   -0.00007385
     atom   54 type  1   force =     0.00002307    0.00008420   -0.00004184
     atom   55 type  1   force =     0.00002348   -0.00006853   -0.00042300
     atom   56 type  1   force =     0.00001954   -0.00003068   -0.00034994
     atom   57 type  1   force =     0.00006451   -0.00002667    0.00000559
     atom   58 type  1   force =    -0.00004294    0.00001692   -0.00016482
     atom   59 type  1   force =    -0.00003955    0.00003462   -0.00008570
     atom   60 type  1   force =    -0.00006002    0.00000400   -0.00017499
     atom   61 type  1   force =    -0.00000224    0.00000664   -0.00012478
     atom   62 type  1   force =     0.00002004   -0.00003246   -0.00003230
     atom   63 type  1   force =     0.00002126   -0.00000050   -0.00000169
     atom   64 type  1   force =     0.00001535   -0.00001950   -0.00006638
     atom   65 type  2   force =     0.00014192    0.00001539   -0.00512599
     atom   66 type  3   force =    -0.00022999   -0.00012338    0.00204260
     atom   67 type  3   force =    -0.00020671    0.00012578    0.00203729

     Total force =     0.006296     Total SCF correction =     0.000374

     BFGS Geometry Optimization

     number of scf cycles    =   1
     number of bfgs steps    =   0

     grand-energy   new      =   -4373.2575869781 Ry

     new trust radius        =       0.4230630620 bohr
     new conv_thr            =       0.0000000100 Ry


ATOMIC_POSITIONS (angstrom)
Pd       0.000000000   0.000000000  -3.395729065    0   0   0
Pd       1.386300404   2.401143103  -3.395729065    0   0   0
Pd       2.772600808   4.802286207  -3.395729065    0   0   0
Pd       4.158901212   7.203429310  -3.395729065    0   0   0
[...]
    -8.4584  -8.4469  -8.4368  -8.4346  -8.4244  -8.4104  -8.3854  -8.3722
    -8.3590  -8.3515  -8.3502  -8.3423  -8.3395  -8.3241  -8.2696  -8.2623
    -8.2352  -8.2300  -8.2213  -8.2173  -8.2042  -8.1756  -8.1736  -8.1711
    -8.1665  -8.1449  -8.1356  -8.0192  -7.9981  -7.9927  -7.9898  -7.9860
    -7.9830  -7.9789  -7.9104  -7.9050  -7.8972  -7.8936  -7.7917  -7.7909
    -7.7706  -7.7565  -7.7558  -7.7530  -7.7431  -7.7136  -7.7076  -7.6530
    -7.6515  -7.6330  -7.6319  -7.5824  -7.5814  -7.5783  -7.5725  -7.5638
    -7.5385  -7.5347  -7.4915  -7.4873  -7.3813  -7.3783  -7.3722  -7.3572
    -7.3505  -7.3438  -7.3361  -7.3206  -7.3162  -7.2738  -7.2712  -7.2196
    -7.2121  -7.1458  -7.1411  -7.1314  -7.1185  -7.0490  -7.0461  -7.0371
    -6.9998  -6.9733  -6.9725  -6.9567  -6.9504  -6.9444  -6.9116  -6.8823
    -6.8733  -6.8722  -6.8694  -6.8670  -6.8504  -6.8019  -6.7968  -6.7776
    -6.7710  -6.7684  -6.7582  -6.7082  -6.7035  -6.6991  -6.6965  -6.6629
    -6.6383  -6.6268  -6.6238  -6.6189  -6.6098  -6.6045  -6.5772  -6.5753
    -6.5618  -6.5370  -6.5305  -6.5270  -6.5197  -6.5044  -6.5037  -6.4997
    -6.4943  -6.4903  -6.4809  -6.4753  -6.4440  -6.4389  -6.4295  -6.4094
    -6.4016  -6.3850  -6.3799  -6.3777  -6.3739  -6.3704  -6.3127  -6.3088
    -6.3043  -6.2792  -6.2784  -6.2755  -6.2736  -6.2403  -6.2348  -6.2194
    -6.1933  -6.1900  -6.1822  -6.1764  -6.1446  -6.1422  -6.0353  -6.0332
    -6.0236  -6.0199  -6.0159  -6.0137  -6.0042  -5.9944  -5.9676  -5.9622
    -5.9613  -5.9472  -5.9436  -5.9319  -5.9262  -5.9134  -5.9084  -5.8963
    -5.8873  -5.8799  -5.8527  -5.7933  -5.7861  -5.7276  -5.7113  -5.7034
    -5.6895  -5.6794  -5.6739  -5.6678  -5.6611  -5.6592  -5.6530  -5.6489
    -5.6254  -5.6165  -5.6061  -5.6021  -5.5966  -5.5951  -5.5662  -5.4662
    -5.4620  -5.4533  -5.4500  -5.4407  -5.4119  -5.4043  -5.3955  -5.3933
    -5.3834  -5.3795  -5.3750  -5.3624  -5.3311  -5.3159  -5.2342  -5.2290
    -5.1878  -5.1863  -5.1706  -5.1668  -5.1018  -5.0888  -5.0872  -5.0851
    -5.0738  -5.0675  -5.0647  -5.0524  -5.0279  -5.0215  -5.0000  -4.9543
    -4.9514  -4.9486  -4.9414  -4.9179  -4.9042  -4.9022  -4.8790  -4.8755
    -4.8508  -4.8464  -4.8359  -4.8316  -4.8300  -4.8199  -4.7949  -4.7910
    -4.7782  -4.7777  -4.7659  -4.7563  -4.7546  -4.7376  -4.7327  -4.6958
    -4.6782  -4.5999  -4.5941  -4.5888  -4.5752  -4.5734  -4.5389  -4.5254
    -4.5216  -4.5193  -4.5140  -4.4434  -4.4318  -4.4004  -4.3993  -4.3975
    -4.3864  -4.3738  -4.3650  -4.3631  -4.3600  -4.3531  -4.3462  -4.3418
    -4.3201  -4.2879  -4.2732  -4.2703  -4.2622  -4.2577  -4.2555  -4.2543
    -4.2453  -4.2436  -4.2381  -4.2369  -4.2189  -4.2071  -4.2019  -4.2006
    -4.1738  -4.1696  -4.1523  -4.1298  -4.1215  -4.1072  -4.0956  -4.0855
    -4.0832  -4.0819  -4.0762  -4.0689  -4.0678  -4.0008  -3.9483  -3.9374
    -3.9318  -3.9235  -3.9147  -3.9019  -3.4736  -3.4323  -3.3235  -3.1907
    -3.1901  -3.1331  -2.8224  -2.8097  -2.6698  -2.6261  -2.5484  -2.3903
    -2.2052  -2.0289  -1.9364  -1.9353  -1.7187  -1.7158  -1.5595  -1.5275
    -1.4794  -1.4273  -1.2644  -1.1625  -1.1580  -1.1174  -1.1148  -0.8157
    -0.4874  -0.4408  -0.3392  -0.3314  -0.1415  -0.0517   0.0542   0.0767
     0.0901   0.1155   0.1514   0.1521   0.5087   0.6148   0.6778   0.7585
     0.7838   0.7949   0.8362   0.8859   0.9019

          k = 0.3333-0.5774 0.0000 (128628 PWs)   bands (ev):

   -25.6477 -13.3549 -10.0451 -10.0342 -10.0319  -9.9201  -9.0412  -8.9921
    -8.9901  -8.7783  -8.7610  -8.7592  -8.7587  -8.7579  -8.7546  -8.7462
    -8.7224  -8.7216  -8.7207  -8.7199  -8.7188  -8.7180  -8.7149  -8.7136
    -8.6886  -8.6856  -8.6823  -8.6169  -8.5811  -8.5797  -8.5482  -8.5114
    -8.5095  -8.5092  -8.5060  -8.5030  -8.4981  -8.4886  -8.4857  -8.4494
    -8.4227  -8.4202  -8.4121  -8.3464  -8.3456  -8.3320  -8.2292  -8.2289
    -8.2228  -8.2202  -8.2185  -8.2178  -8.2172  -8.2165  -8.1825  -8.0977
    -8.0561  -8.0542  -8.0219  -8.0203  -8.0191  -7.9923  -7.9913  -7.9901
    -7.9886  -7.9879  -7.9765  -7.9313  -7.9296  -7.9286  -7.8807  -7.8793
    -7.8778  -7.7792  -7.7789  -7.7701  -7.7095  -7.7081  -7.6999  -7.6768
    -7.6744  -7.6721  -7.6716  -7.6710  -7.6702  -7.6690  -7.6669  -7.6446
    -7.6228  -7.6188  -7.4658  -7.4654  -7.4607  -7.3969  -7.3943  -7.3883
    -7.3691  -7.2730  -7.2388  -7.2380  -7.2337  -7.1695  -7.1671  -7.1632
    -7.1014  -7.1006  -7.0992  -7.0941  -7.0909  -7.0893  -7.0882  -7.0867
    -7.0796  -7.0545  -7.0536  -7.0491  -7.0209  -7.0203  -7.0157  -6.7931
    -6.7920  -6.7913  -6.7826  -6.7743  -6.7700  -6.7412  -6.7368  -6.7111
    -6.7092  -6.7082  -6.7053  -6.7043  -6.7027  -6.6956  -6.6950  -6.6941
    -6.6862  -6.6811  -6.6784  -6.6227  -6.6205  -6.6176  -6.5585  -6.5576
    -6.5553  -6.5445  -6.5403  -6.5398  -6.5375  -6.5348  -6.5314  -6.5260
    -6.5225  -6.5206  -6.4605  -6.4595  -6.4573  -6.4337  -6.4318  -6.4161
    -6.3785  -6.3783  -6.3766  -6.3754  -6.3736  -6.3717  -6.3694  -6.3685
    -6.3678  -6.3353  -6.3328  -6.3319  -6.3199  -6.3181  -6.3045  -6.2948
    -6.2873  -6.2701  -6.2635  -6.2414  -6.2392  -6.2310  -6.1777  -6.1735
    -6.1720  -6.0841  -6.0812  -6.0724  -6.0105  -6.0001  -5.9990  -5.9841
    -5.9788  -5.9768  -5.9758  -5.9744  -5.9594  -5.9498  -5.9441  -5.9426
    -5.7114  -5.7069  -5.6992  -5.6089  -5.6055  -5.5999  -5.5892  -5.5868
    -5.5851  -5.5839  -5.5822  -5.5813  -5.5537  -5.5466  -5.5297  -5.5245
    -5.5220  -5.5145  -5.5123  -5.4392  -5.4354  -5.4306  -5.3947  -5.3914
    -5.3879  -5.3837  -5.3819  -5.3794  -5.3782  -5.3748  -5.3717  -5.3710
    -5.3687  -5.3469  -5.2918  -5.2789  -5.2639  -5.2619  -5.2571  -5.2112
    -5.2089  -5.2060  -5.1085  -5.0994  -5.0941  -5.0396  -5.0377  -5.0344
    -5.0321  -5.0285  -5.0273  -5.0060  -4.9970  -4.9930  -4.9889  -4.9815
    -4.9780  -4.9769  -4.9757  -4.9619  -4.8657  -4.8619  -4.8503  -4.8058
    -4.8009  -4.7968  -4.7702  -4.7662  -4.7648  -4.7628  -4.7595  -4.7430
    -4.7200  -4.7198  -4.7144  -4.6889  -4.6773  -4.6746  -4.6718  -4.6701
    -4.6662  -4.6339  -4.6276  -4.6255  -4.6237  -4.6229  -4.6116  -4.5936
    -4.5630  -4.5593  -4.5321  -4.4710  -4.4690  -4.4557  -4.3578  -4.3528
    -4.3500  -4.3496  -4.3477  -4.3463  -4.3329  -4.3275  -4.3241  -4.3040
    -4.3009  -4.2986  -4.2971  -4.2952  -4.2857  -4.2853  -4.2817  -4.2777
    -4.2744  -4.2727  -4.2677  -4.2658  -4.2649  -4.2572  -4.2453  -4.2432
    -4.2417  -4.2374  -4.2361  -4.2267  -4.1878  -4.1844  -4.1590  -4.0604
    -4.0583  -4.0546  -4.0534  -4.0518  -4.0503  -4.0429  -4.0370  -4.0274
    -4.0240  -4.0231  -3.9357  -3.3621  -3.3604  -3.3585  -3.3547  -3.3539
    -3.3526  -2.9173  -2.9106  -2.9076  -2.9051  -2.9036  -2.8984  -2.7074
    -2.7012  -2.6476  -2.4975  -2.4708  -2.4024  -1.5338  -1.5183  -1.5047
    -1.5037  -1.4988  -1.4199  -1.2193  -1.1200  -1.0859  -0.6023  -0.5990
    -0.5104  -0.3671  -0.3650  -0.3618   0.1838   0.2752   0.2831   0.2872
     0.3514   0.4019   0.6020   0.6621   0.6952   0.7189   0.7257   0.7808
     0.7856   0.7918   0.8343   0.9630   1.0909

     the Fermi energy is    -4.1192 ev

!    total energy              =   -4373.26219635 Ry
     Harris-Foulkes estimate   =   -4373.26219770 Ry
     estimated scf accuracy    <          6.2E-09 Ry

     The total energy is the sum of the following terms:

     one-electron contribution = -514359.70531932 Ry
     hartree contribution      =  257516.22092332 Ry
     xc contribution           =   -1393.35912659 Ry
     ewald contribution        =  253863.66190831 Ry
     smearing contrib. (-TS)   =      -0.11338751 Ry
     pot.stat. contrib. (-muN) =       0.03280543 Ry

     convergence has been achieved in  11 iterations

     negative rho (up, down):  3.032E-03 0.000E+00

     Forces acting on atoms (cartesian axes, Ry/au):

     atom    1 type  1   force =     0.00004634    0.00002508   -0.00141989
     atom    2 type  1   force =     0.00016416    0.00001191   -0.00076252
     atom    3 type  1   force =    -0.00014218    0.00009828   -0.00067897
     atom    4 type  1   force =     0.00012937   -0.00017316   -0.00080527
     atom    5 type  1   force =     0.00012253    0.00006575   -0.00086712
     atom    6 type  1   force =    -0.00002075   -0.00006737   -0.00083780
     atom    7 type  1   force =     0.00005733    0.00009708   -0.00087155
     atom    8 type  1   force =     0.00006934   -0.00014094   -0.00092787
     atom    9 type  1   force =     0.00000966   -0.00018820   -0.00070643
     atom   10 type  1   force =     0.00012069   -0.00002878   -0.00089920
     atom   11 type  1   force =     0.00022865    0.00012147   -0.00077614
     atom   12 type  1   force =     0.00052963   -0.00031667   -0.00162221
     atom   13 type  1   force =    -0.00009642    0.00015890   -0.00083063
     atom   14 type  1   force =    -0.00013173    0.00008760   -0.00091903
     atom   15 type  1   force =    -0.00002195    0.00074448   -0.00160252
     atom   16 type  1   force =    -0.00072281   -0.00038851   -0.00161669
     atom   17 type  1   force =    -0.00092881   -0.00037348    0.00254530
     atom   18 type  1   force =     0.00009927    0.00011416    0.00019150
     atom   19 type  1   force =    -0.00009435   -0.00010071    0.00021520
     atom   20 type  1   force =    -0.00037963    0.00099997    0.00280762
     atom   21 type  1   force =     0.00004512    0.00014496    0.00026861
     atom   22 type  1   force =    -0.00013814   -0.00003776    0.00071288
     atom   23 type  1   force =    -0.00028245   -0.00014509    0.00055039
     atom   24 type  1   force =    -0.00045626    0.00024162    0.00031904
     atom   25 type  1   force =    -0.00000470    0.00010891    0.00041988
     atom   26 type  1   force =    -0.00017870   -0.00020003    0.00056004
     atom   27 type  1   force =     0.00030065   -0.00009191    0.00063559
     atom   28 type  1   force =     0.00025875   -0.00020949    0.00061089
     atom   29 type  1   force =     0.00078956   -0.00065612    0.00302005
     atom   30 type  1   force =    -0.00010107   -0.00073509    0.00073102
     atom   31 type  1   force =    -0.00007253    0.00028649    0.00032992
     atom   32 type  1   force =     0.00092419    0.00056483    0.00145144
     atom   33 type  1   force =    -0.00001255   -0.00000248   -0.00001450
     atom   34 type  1   force =    -0.00001596   -0.00001434   -0.00001733
     atom   35 type  1   force =    -0.00000571    0.00000672   -0.00001809
     atom   36 type  1   force =    -0.00000770    0.00001333   -0.00003024
     atom   37 type  1   force =    -0.00001072   -0.00000587   -0.00001880
     atom   38 type  1   force =     0.00000154   -0.00001137   -0.00002005
     atom   39 type  1   force =     0.00002665   -0.00001056   -0.00001748
     atom   40 type  1   force =     0.00000988    0.00000159   -0.00001730
     atom   41 type  1   force =     0.00000648   -0.00000035   -0.00001199
     atom   42 type  1   force =     0.00001278    0.00000371   -0.00001168
     atom   43 type  1   force =    -0.00000880   -0.00000693   -0.00001990
     atom   44 type  1   force =    -0.00002179   -0.00000374   -0.00002178
     atom   45 type  1   force =    -0.00000267    0.00000620   -0.00004358
     atom   46 type  1   force =    -0.00000853    0.00001015   -0.00001478
     atom   47 type  1   force =    -0.00002828   -0.00001549   -0.00001925
     atom   48 type  1   force =    -0.00001543   -0.00000160   -0.00006710
     atom   49 type  1   force =    -0.00000786    0.00000206   -0.00001675
     atom   50 type  1   force =    -0.00001604   -0.00001290   -0.00002780
     atom   51 type  1   force =     0.00000030    0.00002267   -0.00001477
     atom   52 type  1   force =    -0.00000364    0.00000150    0.00009751
     atom   53 type  1   force =    -0.00002466   -0.00001423   -0.00000777
     atom   54 type  1   force =     0.00000252    0.00001098   -0.00000602
     atom   55 type  1   force =     0.00001080    0.00000482    0.00000378
     atom   56 type  1   force =     0.00001142    0.00000792   -0.00000843
     atom   57 type  1   force =     0.00001475   -0.00000433   -0.00000751
     atom   58 type  1   force =     0.00000719   -0.00000008   -0.00001800
     atom   59 type  1   force =     0.00000308    0.00000541   -0.00003614
     atom   60 type  1   force =    -0.00002351   -0.00000202   -0.00002135
     atom   61 type  1   force =     0.00002218   -0.00000382   -0.00002255
     atom   62 type  1   force =     0.00000546   -0.00001221   -0.00004136
     atom   63 type  1   force =    -0.00000031   -0.00000366   -0.00003753
     atom   64 type  1   force =     0.00002439   -0.00000198   -0.00002162
     atom   65 type  2   force =     0.00000928    0.00000827   -0.00001420
     atom   66 type  3   force =    -0.00004960   -0.00004473   -0.00002323
     atom   67 type  3   force =    -0.00002770    0.00004919   -0.00002417

     Total force =     0.000216     Total SCF correction =     0.000287
     SCF correction compared to forces is large: reduce conv_thr to get better values

     bfgs converged in   9 scf cycles and   8 bfgs steps
     (criteria: energy <  1.0E-05 Ry, force <  1.0E-04 Ry/Bohr)
     (criteria: force on FCP <  1.0E-02 eV)

     End of BFGS Geometry Optimization

     Final grand-energy   =   -4373.2621963518 Ry
Begin final coordinates

ATOMIC_POSITIONS (angstrom)
Pd       0.000000000   0.000000000  -3.395729065    0   0   0
Pd       1.386300404   2.401143103  -3.395729065    0   0   0
Pd       2.772600808   4.802286207  -3.395729065    0   0   0
Pd       4.158901212   7.203429310  -3.395729065    0   0   0
Pd       2.772601128   0.000000000  -3.395729065    0   0   0
Pd       4.158901532   2.401143103  -3.395729065    0   0   0
Pd       5.545201936   4.802286207  -3.395729065    0   0   0
Pd       6.931502339   7.203429310  -3.395729065    0   0   0
Pd       5.545202255   0.000000000  -3.395729065    0   0   0
Pd       6.931502659   2.401143103  -3.395729065    0   0   0
Pd       8.317803063   4.802286207  -3.395729065    0   0   0
Pd       9.704103467   7.203429310  -3.395729065    0   0   0
Pd       8.317803383   0.000000000  -3.395729065    0   0   0
Pd       9.704103787   2.401143103  -3.395729065    0   0   0
Pd      11.090404191   4.802286207  -3.395729065    0   0   0
Pd      12.476704595   7.203429310  -3.395729065    0   0   0
Pd       1.386300552   0.800381058  -1.131909044    0   0   0
Pd       2.772600997   3.201524233  -1.131909044    0   0   0
Pd       4.158901236   5.602667050  -1.131909044    0   0   0
Pd       5.545201640   8.003810154  -1.131909044    0   0   0
Pd       4.158901762   0.800381058  -1.131909044    0   0   0
Pd       5.545202207   3.201524233  -1.131909044    0   0   0
Pd       6.931502446   5.602667050  -1.131909044    0   0   0
Pd       8.317802850   8.003810154  -1.131909044    0   0   0
Pd       6.931502559   0.800381058  -1.131909044    0   0   0
Pd       8.317803004   3.201524233  -1.131909044    0   0   0
Pd       9.704103243   5.602667050  -1.131909044    0   0   0
Pd      11.090403647   8.003810154  -1.131909044    0   0   0
Pd       9.704103687   0.800381058  -1.131909044    0   0   0
Pd      11.090404132   3.201524233  -1.131909044    0   0   0
Pd      12.476704371   5.602667050  -1.131909044    0   0   0
Pd      13.863004775   8.003810154  -1.131909044    0   0   0
Pd       2.772108204   1.601714042   1.114999324
Pd       4.156413576   4.001746971   1.117541081
Pd       5.542295236   6.401184891   1.116056459
Pd       6.924973977   8.806061919   1.125801945
Pd       5.542958313   1.599717346   1.117267209
Pd       6.930109887   4.002281980   1.117022113
Pd       8.317400173   6.403030004   1.113687467
Pd       9.702781699   8.801726165   1.113040972
Pd       8.314141991   1.600972033   1.116705348
Pd       9.702926087   4.000852463   1.115070522
Pd      11.088112511   6.402417778   1.118618614
Pd      12.476063661   8.803198554   1.115056023
Pd      11.087944399   1.593654719   1.129024823
Pd      12.473208997   4.002690459   1.113244673
Pd      13.860875176   6.404112526   1.114981590
Pd      15.254967603   8.808804411   1.133417156
Pd       1.388813139   2.411041859   3.380371436
Pd       2.766748475   4.799342566   3.386630447
Pd       4.146254485   7.188555816   3.383290254
Pd      -0.016433070  -0.002860058   3.430214119
Pd       4.154787449   2.400729283   3.388898609
Pd       5.540419841   4.799599551   3.387828004
Pd       6.932898618   7.190816268   3.379960475
Pd       2.781464093  -0.000480636   3.376049304
Pd       6.924028226   2.402078162   3.386387075
Pd       8.313160163   4.803103287   3.387410184
Pd       9.699106976   7.201894790   3.389109716
Pd       5.537986103  -0.001479358   3.386709210
Pd       9.692765149   2.412016876   3.382227110
Pd      11.086096535   4.801888063   3.388068260
Pd      12.468764451   7.200222691   3.387011084
Pd       8.296076247  -0.001517651   3.383711982
O        0.278697777  -0.001511691   5.784189105
H        0.873548669   0.780251207   5.805391419
H        0.884765886  -0.774737966   5.803491452
End final coordinates


     FCP: Total Charge =    -0.108377
     FCP: Fermi Energy =    -0.302758 Ry (   -4.119232 eV)
     FCP: Target Level =    -0.302697 Ry (   -4.118400 eV)
     FCP: Force on FCP =     0.000061 Ry (    0.000832 eV)
     FCP: Force Thr.   =     0.000735 Ry (    0.010000 eV)



     Writing output data file scf.save
 
     init_run     :     11.46s CPU     12.82s WALL (       1 calls)
     electrons    :   7159.67s CPU   7582.59s WALL (       9 calls)
     update_pot   :     22.49s CPU     24.62s WALL (       8 calls)
     forces       :     62.47s CPU     67.08s WALL (       9 calls)

     Called by init_run:
     wfcinit      :      5.94s CPU      6.47s WALL (       1 calls)
     potinit      :      1.93s CPU      2.44s WALL (       1 calls)

     Called by electrons:
     c_bands      :   6075.40s CPU   6253.71s WALL (     349 calls)
     sum_band     :    690.28s CPU    794.38s WALL (     349 calls)
     v_of_rho     :    262.32s CPU    321.40s WALL (     349 calls)
     newd         :    116.33s CPU    197.65s WALL (     349 calls)
     mix_rho      :     10.03s CPU     10.43s WALL (     349 calls)

     Called by c_bands:
     init_us_2    :     20.44s CPU     21.22s WALL (    1416 calls)
     cegterg      :   5384.70s CPU   5559.65s WALL (     705 calls)

     Called by sum_band:
     sum_band:bec :      2.50s CPU      2.64s WALL (     698 calls)
     addusdens    :    120.02s CPU    206.18s WALL (     349 calls)

     Called by *egterg:
     h_psi        :   1936.81s CPU   1961.95s WALL (    3043 calls)
     s_psi        :    395.58s CPU    399.06s WALL (    3043 calls)
     g_psi        :      3.79s CPU      3.83s WALL (    2336 calls)
     cdiaghg      :   2111.20s CPU   2131.51s WALL (    3007 calls)

     Called by h_psi:
     h_psi:pot    :   1923.38s CPU   1948.28s WALL (    3043 calls)
     h_psi:calbec :    392.61s CPU    401.90s WALL (    3043 calls)
     vloc_psi     :   1135.33s CPU   1147.74s WALL (    3043 calls)
     add_vuspsi   :    395.41s CPU    398.61s WALL (    3043 calls)

     General routines
     calbec       :    572.46s CPU    593.97s WALL (    3813 calls)
     fft          :    157.23s CPU    190.81s WALL (   23591 calls)
     ffts         :      1.71s CPU      1.79s WALL (     698 calls)
     fftw         :   1089.00s CPU   1099.89s WALL ( 1533626 calls)
     interpolate  :      6.66s CPU      8.79s WALL (     698 calls)
     davcio       :      0.00s CPU      0.12s WALL (       2 calls)
 
     Parallel routines
     fft_scatter  :    772.02s CPU    808.65s WALL ( 1557915 calls)
 
     PWSCF        :     2h 1m CPU        2h 8m WALL

 
   This run was terminated on:  19:47:49  29May2023            

=------------------------------------------------------------------------------=
   JOB DONE.
=------------------------------------------------------------------------------=
