
     Program PWSCF v.7.1 starts on 23Oct2023 at 12:38:36 

     This program is part of the open-source Quantum ESPRESSO suite
     for quantum simulation of materials; please cite
         "P. Giannozzi et al., J. Phys.:Condens. Matter 21 395502 (2009);
         "P. Giannozzi et al., J. Phys.:Condens. Matter 29 465901 (2017);
         "P. Giannozzi et al., J. Chem. Phys. 152 154105 (2020);
          URL http://www.quantum-espresso.org", 
     in publications or presentations arising from this work. More details at
     http://www.quantum-espresso.org/quote

     Serial version
     0 MiB available memory on the printing compute node when the environment starts

     Waiting for input...
     Reading input from standard input
Warning: card &CELL ignored
Warning: card / ignored

     Current dimensions of program PWSCF are:
     Max number of different atomic species (ntypx) = 10
     Max number of k-points (npk) =  40000
     Max angular momentum in pseudopotentials (lmaxx) =  4
     Message from routine setup:
     using ibrav=0 with symmetry is DISCOURAGED, use correct ibrav instead


     G-vector sticks info
     --------------------
     sticks:   dense  smooth     PW     G-vecs:    dense   smooth      PW
     Sum        9085    4537   1129               652671   230389   28671

     Using Slab Decomposition



     bravais-lattice index     =            0
     lattice parameter (alat)  =      18.8973  a.u.
     unit-cell volume          =    6748.3345 (a.u.)^3
     number of atoms/cell      =            3
     number of atomic types    =            2
     number of electrons       =         8.00
     number of Kohn-Sham states=            4
     kinetic-energy cutoff     =      40.0000  Ry
     charge density cutoff     =     320.0000  Ry
     scf convergence threshold =      1.0E-06
     mixing beta               =       0.7000
     number of iterations used =            8  plain     mixing
     energy convergence thresh.=      1.0E-04
     force convergence thresh. =      1.0E-04
     Exchange-correlation= PBE
                           (   1   4   3   4   0   0   0)
     nstep                     =           50


     celldm(1)=  18.897261  celldm(2)=   0.000000  celldm(3)=   0.000000
     celldm(4)=   0.000000  celldm(5)=   0.000000  celldm(6)=   0.000000

     crystal axes: (cart. coord. in units of alat)
               a(1) = (   1.000000   0.000000   0.000000 )  
               a(2) = (   0.000000   1.000000   0.000000 )  
               a(3) = (   0.000000   0.000000   1.000000 )  

     reciprocal axes: (cart. coord. in units 2 pi/alat)
               b(1) = (  1.000000  0.000000  0.000000 )  
               b(2) = (  0.000000  1.000000  0.000000 )  
               b(3) = (  0.000000  0.000000  1.000000 )  


     PseudoPot. # 1 for H  read from file:
     /Users/genmasahiko/Program/pp/H.pbe-rrkjus_psl.1.0.0.UPF
     MD5 check sum: 3f4114867bd07edc7f1424d066fc1888
     Pseudo is Ultrasoft, Zval =  1.0
     Generated using &quot;atomic&quot; code by A. Dal Corso  v.6.3MaX
     Using radial grid of  929 points,  2 beta functions with: 
                l(1) =   0
                l(2) =   0
     Q(r) pseudized with 0 coefficients 


     PseudoPot. # 2 for O  read from file:
     /Users/genmasahiko/Program/pp/O.pbe-n-rrkjus_psl.1.0.0.UPF
     MD5 check sum: 91400c9766925bcf19f520983a725ff0
     Pseudo is Ultrasoft + core correction, Zval =  6.0
     Generated using &quot;atomic&quot; code by A. Dal Corso  v.6.3MaX
     Using radial grid of 1095 points,  4 beta functions with: 
                l(1) =   0
                l(2) =   0
                l(3) =   1
                l(4) =   1
     Q(r) pseudized with 0 coefficients 


     atomic species   valence    mass     pseudopotential
        H              1.00     1.00800     H ( 1.00)
        O              6.00    15.99900     O ( 1.00)

      4 Sym. Ops. (no inversion) found



   Cartesian axes

     site n.     atom                  positions (alat units)
         1           O   tau(   1) = (   0.0000000  -0.0007053   0.0000000  )
         2           H   tau(   2) = (   0.0767322   0.0589527   0.0000000  )
         3           H   tau(   3) = (  -0.0767322   0.0589527   0.0000000  )

     number of k points=     1
                       cart. coord. in units 2pi/alat
        k(    1) = (   0.0000000   0.0000000   0.0000000), wk =   2.0000000

     Dense  grid:   652671 G-vectors     FFT dimensions: ( 108, 108, 108)

     Smooth grid:   230389 G-vectors     FFT dimensions: (  80,  80,  80)

     Estimated max dynamical RAM per process >     855.49 MB

     Initial potential from superposition of free atoms

     starting charge       8.0000, renormalised to       8.0000

     negative rho (up, down):  1.465E-03 0.000E+00
     Starting wfcs are    6 randomized atomic wfcs

     total cpu time spent up to now is        1.7 secs

     Self-consistent Calculation

     iteration #  1     ecut=    40.00 Ry     beta= 0.70
     Davidson diagonalization with overlap
     ethr =  1.00E-02,  avg # of iterations =  3.0

     negative rho (up, down):  1.934E-03 0.000E+00

     total cpu time spent up to now is        3.0 secs

     total energy              =     -34.54216654 Ry
     estimated scf accuracy    <       0.49658217 Ry

     iteration #  2     ecut=    40.00 Ry     beta= 0.70
     Davidson diagonalization with overlap
     ethr =  6.21E-03,  avg # of iterations =  4.0

     negative rho (up, down):  2.221E-03 0.000E+00

     total cpu time spent up to now is        4.4 secs

     total energy              =     -34.75783936 Ry
     estimated scf accuracy    <       0.12466925 Ry

     iteration #  3     ecut=    40.00 Ry     beta= 0.70
     Davidson diagonalization with overlap
     ethr =  1.56E-03,  avg # of iterations =  3.0

     negative rho (up, down):  2.447E-03 0.000E+00

     total cpu time spent up to now is        5.7 secs

     total energy              =     -34.76718550 Ry
     estimated scf accuracy    <       0.03253571 Ry

     iteration #  4     ecut=    40.00 Ry     beta= 0.70
     Davidson diagonalization with overlap
     ethr =  4.07E-04,  avg # of iterations =  2.0

     negative rho (up, down):  1.916E-03 0.000E+00

     total cpu time spent up to now is        7.0 secs

     total energy              =     -34.77487214 Ry
     estimated scf accuracy    <       0.00132386 Ry

     iteration #  5     ecut=    40.00 Ry     beta= 0.70
     Davidson diagonalization with overlap
     ethr =  1.65E-05,  avg # of iterations =  7.0

     negative rho (up, down):  1.924E-03 0.000E+00

     total cpu time spent up to now is        8.3 secs

     total energy              =     -34.77661310 Ry
     estimated scf accuracy    <       0.00287747 Ry

     iteration #  6     ecut=    40.00 Ry     beta= 0.70
     Davidson diagonalization with overlap
     ethr =  1.65E-05,  avg # of iterations =  5.0

     negative rho (up, down):  1.909E-03 0.000E+00

     total cpu time spent up to now is        9.7 secs

     total energy              =     -34.77726384 Ry
     estimated scf accuracy    <       0.00003044 Ry

     iteration #  7     ecut=    40.00 Ry     beta= 0.70
     Davidson diagonalization with overlap
     ethr =  3.80E-07,  avg # of iterations =  9.0

     negative rho (up, down):  1.896E-03 0.000E+00

     total cpu time spent up to now is       11.1 secs

     total energy              =     -34.77739419 Ry
     estimated scf accuracy    <       0.00031976 Ry

     iteration #  8     ecut=    40.00 Ry     beta= 0.70
     Davidson diagonalization with overlap
     ethr =  3.80E-07,  avg # of iterations =  4.0

     negative rho (up, down):  1.898E-03 0.000E+00

     total cpu time spent up to now is       12.5 secs

     total energy              =     -34.77733899 Ry
     estimated scf accuracy    <       0.00013062 Ry

     iteration #  9     ecut=    40.00 Ry     beta= 0.70
     Davidson diagonalization with overlap
     ethr =  3.80E-07,  avg # of iterations =  7.0

     negative rho (up, down):  1.904E-03 0.000E+00

     total cpu time spent up to now is       13.9 secs

     total energy              =     -34.77737984 Ry
     estimated scf accuracy    <       0.00000481 Ry

     iteration # 10     ecut=    40.00 Ry     beta= 0.70
     Davidson diagonalization with overlap
     ethr =  6.02E-08,  avg # of iterations =  4.0

     negative rho (up, down):  1.905E-03 0.000E+00

     total cpu time spent up to now is       15.3 secs

     total energy              =     -34.77737875 Ry
     estimated scf accuracy    <       0.00000762 Ry

     iteration # 11     ecut=    40.00 Ry     beta= 0.70
     Davidson diagonalization with overlap
     ethr =  6.02E-08,  avg # of iterations =  3.0

     negative rho (up, down):  1.906E-03 0.000E+00

     total cpu time spent up to now is       16.5 secs

     End of self-consistent calculation

          k = 0.0000 0.0000 0.0000 ( 28671 PWs)   bands (ev):

   -25.1730 -12.9483  -9.1752  -7.1009

     highest occupied level (ev):    -7.1009

!    total energy              =     -34.77737943 Ry
     estimated scf accuracy    <       0.00000055 Ry

     The total energy is the sum of the following terms:
     one-electron contribution =     -63.25363570 Ry
     hartree contribution      =      33.14943914 Ry
     xc contribution           =      -8.85087611 Ry
     ewald contribution        =       4.17769324 Ry

     convergence has been achieved in  11 iterations

     negative rho (up, down):  1.906E-03 0.000E+00

     Forces acting on atoms (cartesian axes, Ry/au):

     atom    1 type  2   force =     0.00000000   -0.00046923    0.00000000
     atom    2 type  1   force =     0.00022953    0.00023462    0.00000000
     atom    3 type  1   force =    -0.00022953    0.00023462    0.00000000

     Total force =     0.000660     Total SCF correction =     0.000465
     SCF correction compared to forces is large: reduce conv_thr to get better values

     BFGS Geometry Optimization
     Energy error            =      0.0E+00 Ry
     Gradient error          =      4.7E-04 Ry/Bohr

     number of scf cycles    =   1
     number of bfgs steps    =   0

     energy             new  =     -34.7773794336 Ry

     new trust radius        =       0.0004692327 bohr
     new conv_thr            =       0.0000010000 Ry


ATOMIC_POSITIONS (angstrom)
O             0.0000000000       -0.0073016506        0.0000000000
H             0.7674429928        0.5896508253        0.0000000000
H            -0.7674429928        0.5896508253        0.0000000000



     Writing config-only to output data dir ./data/scf.save/
     NEW-OLD atomic charge density approx. for the potential

     negative rho (up, down):  1.905E-03 0.000E+00

     total cpu time spent up to now is       18.5 secs

     Self-consistent Calculation

     iteration #  1     ecut=    40.00 Ry     beta= 0.70
     Davidson diagonalization with overlap
     ethr =  1.00E-06,  avg # of iterations =  2.0

     Threshold (ethr) on eigenvalues was too large:
     Diagonalizing with lowered threshold

     Davidson diagonalization with overlap
     ethr =  3.90E-08,  avg # of iterations =  4.0

     negative rho (up, down):  1.903E-03 0.000E+00

     total cpu time spent up to now is       20.4 secs

     total energy              =     -34.77737695 Ry
     estimated scf accuracy    <       0.00000776 Ry

     iteration #  2     ecut=    40.00 Ry     beta= 0.70
     Davidson diagonalization with overlap
     ethr =  9.70E-08,  avg # of iterations =  4.0

     negative rho (up, down):  1.904E-03 0.000E+00

     total cpu time spent up to now is       21.8 secs

     total energy              =     -34.77738023 Ry
     estimated scf accuracy    <       0.00000148 Ry

     iteration #  3     ecut=    40.00 Ry     beta= 0.70
     Davidson diagonalization with overlap
     ethr =  1.85E-08,  avg # of iterations =  4.0

     negative rho (up, down):  1.905E-03 0.000E+00

     total cpu time spent up to now is       22.9 secs

     End of self-consistent calculation

          k = 0.0000 0.0000 0.0000 ( 28671 PWs)   bands (ev):

   -25.1769 -12.9496  -9.1836  -7.1077

     highest occupied level (ev):    -7.1077

!    total energy              =     -34.77738014 Ry
     estimated scf accuracy    <       0.00000068 Ry

     The total energy is the sum of the following terms:
     one-electron contribution =     -63.24370957 Ry
     hartree contribution      =      33.14288299 Ry
     xc contribution           =      -8.84979454 Ry
     ewald contribution        =       4.17324097 Ry

     convergence has been achieved in   3 iterations

     negative rho (up, down):  1.905E-03 0.000E+00

     Forces acting on atoms (cartesian axes, Ry/au):

     atom    1 type  2   force =     0.00000000    0.00067740    0.00000000
     atom    2 type  1   force =     0.00015858   -0.00033870    0.00000000
     atom    3 type  1   force =    -0.00015858   -0.00033870    0.00000000

     Total force =     0.000859     Total SCF correction =     0.000575
     SCF correction compared to forces is large: reduce conv_thr to get better values
     Energy error            =      7.1E-07 Ry
     Gradient error          =      6.8E-04 Ry/Bohr

     number of scf cycles    =   2
     number of bfgs steps    =   1

     energy             old  =     -34.7773794336 Ry
     energy             new  =     -34.7773801394 Ry

     CASE: energy            _new < energy            _old

     new trust radius        =       0.0002459313 bohr
     new conv_thr            =       0.0000000100 Ry


ATOMIC_POSITIONS (angstrom)
O             0.0000000000       -0.0071715093        0.0000000000
H             0.7675138540        0.5895857547        0.0000000000
H            -0.7675138540        0.5895857547        0.0000000000



     Writing config-only to output data dir ./data/scf.save/
     NEW-OLD atomic charge density approx. for the potential

     negative rho (up, down):  1.905E-03 0.000E+00

     total cpu time spent up to now is       24.9 secs

     Self-consistent Calculation

     iteration #  1     ecut=    40.00 Ry     beta= 0.70
     Davidson diagonalization with overlap
     ethr =  1.00E-06,  avg # of iterations =  2.0

     Threshold (ethr) on eigenvalues was too large:
     Diagonalizing with lowered threshold

     Davidson diagonalization with overlap
     ethr =  4.38E-09,  avg # of iterations =  7.0

     negative rho (up, down):  1.904E-03 0.000E+00

     total cpu time spent up to now is       27.0 secs

     total energy              =     -34.77738015 Ry
     estimated scf accuracy    <       0.00000123 Ry

     iteration #  2     ecut=    40.00 Ry     beta= 0.70
     Davidson diagonalization with overlap
     ethr =  1.54E-08,  avg # of iterations =  6.0

     negative rho (up, down):  1.904E-03 0.000E+00

     total cpu time spent up to now is       28.4 secs

     total energy              =     -34.77738063 Ry
     estimated scf accuracy    <       0.00000051 Ry

     iteration #  3     ecut=    40.00 Ry     beta= 0.70
     Davidson diagonalization with overlap
     ethr =  6.34E-09,  avg # of iterations =  2.0

     negative rho (up, down):  1.905E-03 0.000E+00

     total cpu time spent up to now is       29.7 secs

     total energy              =     -34.77738064 Ry
     estimated scf accuracy    <       0.00000009 Ry

     iteration #  4     ecut=    40.00 Ry     beta= 0.70
     Davidson diagonalization with overlap
     ethr =  1.15E-09,  avg # of iterations =  4.0

     negative rho (up, down):  1.905E-03 0.000E+00

     total cpu time spent up to now is       31.0 secs

     total energy              =     -34.77738071 Ry
     estimated scf accuracy    <       0.00000001 Ry

     iteration #  5     ecut=    40.00 Ry     beta= 0.70
     Davidson diagonalization with overlap
     ethr =  1.84E-10,  avg # of iterations =  2.0

     negative rho (up, down):  1.904E-03 0.000E+00

     total cpu time spent up to now is       32.2 secs

     End of self-consistent calculation

          k = 0.0000 0.0000 0.0000 ( 28671 PWs)   bands (ev):

   -25.1720 -12.9473  -9.1774  -7.1023

     highest occupied level (ev):    -7.1023

!    total energy              =     -34.77738071 Ry
     estimated scf accuracy    <          3.1E-09 Ry

     The total energy is the sum of the following terms:
     one-electron contribution =     -63.24201027 Ry
     hartree contribution      =      33.13977291 Ry
     xc contribution           =      -8.84917707 Ry
     ewald contribution        =       4.17403372 Ry

     convergence has been achieved in   5 iterations

     negative rho (up, down):  1.904E-03 0.000E+00

     Forces acting on atoms (cartesian axes, Ry/au):

     atom    1 type  2   force =     0.00000000    0.00040124    0.00000000
     atom    2 type  1   force =     0.00021330   -0.00020062    0.00000000
     atom    3 type  1   force =    -0.00021330   -0.00020062    0.00000000

     Total force =     0.000577     Total SCF correction =     0.000019
     Energy error            =      5.7E-07 Ry
     Gradient error          =      4.0E-04 Ry/Bohr

     number of scf cycles    =   3
     number of bfgs steps    =   2

     energy             old  =     -34.7773801394 Ry
     energy             new  =     -34.7773807127 Ry

     CASE: energy            _new < energy            _old

     new trust radius        =       0.0002705244 bohr
     new conv_thr            =       0.0000000100 Ry


ATOMIC_POSITIONS (angstrom)
O             0.0000000000       -0.0070688698        0.0000000000
H             0.7676474943        0.5895344349        0.0000000000
H            -0.7676474943        0.5895344349        0.0000000000



     Writing config-only to output data dir ./data/scf.save/
     NEW-OLD atomic charge density approx. for the potential

     negative rho (up, down):  1.904E-03 0.000E+00

     total cpu time spent up to now is       34.1 secs

     Self-consistent Calculation

     iteration #  1     ecut=    40.00 Ry     beta= 0.70
     Davidson diagonalization with overlap
     ethr =  1.00E-06,  avg # of iterations =  2.0

     Threshold (ethr) on eigenvalues was too large:
     Diagonalizing with lowered threshold

     Davidson diagonalization with overlap
     ethr =  4.89E-10,  avg # of iterations =  4.0

     negative rho (up, down):  1.904E-03 0.000E+00

     total cpu time spent up to now is       36.0 secs

     total energy              =     -34.77738090 Ry
     estimated scf accuracy    <       0.00000002 Ry

     iteration #  2     ecut=    40.00 Ry     beta= 0.70
     Davidson diagonalization with overlap
     ethr =  2.79E-10,  avg # of iterations =  4.0

     negative rho (up, down):  1.904E-03 0.000E+00

     total cpu time spent up to now is       37.2 secs

     End of self-consistent calculation

          k = 0.0000 0.0000 0.0000 ( 28671 PWs)   bands (ev):

   -25.1708 -12.9478  -9.1756  -7.1015

     highest occupied level (ev):    -7.1015

!    total energy              =     -34.77738091 Ry
     estimated scf accuracy    <          5.2E-09 Ry

     The total energy is the sum of the following terms:
     one-electron contribution =     -63.24176464 Ry
     hartree contribution      =      33.13979510 Ry
     xc contribution           =      -8.84917957 Ry
     ewald contribution        =       4.17376820 Ry

     convergence has been achieved in   2 iterations

     negative rho (up, down):  1.904E-03 0.000E+00

     Forces acting on atoms (cartesian axes, Ry/au):

     atom    1 type  2   force =     0.00000000    0.00037968    0.00000000
     atom    2 type  1   force =     0.00010381   -0.00018984    0.00000000
     atom    3 type  1   force =    -0.00010381   -0.00018984    0.00000000

     Total force =     0.000488     Total SCF correction =     0.000068
     SCF correction compared to forces is large: reduce conv_thr to get better values
     Energy error            =      2.0E-07 Ry
     Gradient error          =      3.8E-04 Ry/Bohr

     number of scf cycles    =   4
     number of bfgs steps    =   3

     energy             old  =     -34.7773807127 Ry
     energy             new  =     -34.7773809124 Ry

     CASE: energy            _new < energy            _old

     new trust radius        =       0.0004057866 bohr
     new conv_thr            =       0.0000000100 Ry


ATOMIC_POSITIONS (angstrom)
O             0.0000000000       -0.0068541367        0.0000000000
H             0.7678313524        0.5894270684        0.0000000000
H            -0.7678313524        0.5894270684        0.0000000000



     Writing config-only to output data dir ./data/scf.save/
     NEW-OLD atomic charge density approx. for the potential

     negative rho (up, down):  1.904E-03 0.000E+00

     total cpu time spent up to now is       39.2 secs

     Self-consistent Calculation

     iteration #  1     ecut=    40.00 Ry     beta= 0.70
     Davidson diagonalization with overlap
     ethr =  1.00E-06,  avg # of iterations =  2.0

     Threshold (ethr) on eigenvalues was too large:
     Diagonalizing with lowered threshold

     Davidson diagonalization with overlap
     ethr =  1.43E-09,  avg # of iterations =  5.0

     negative rho (up, down):  1.905E-03 0.000E+00

     total cpu time spent up to now is       41.0 secs

     total energy              =     -34.77738111 Ry
     estimated scf accuracy    <       0.00000007 Ry

     iteration #  2     ecut=    40.00 Ry     beta= 0.70
     Davidson diagonalization with overlap
     ethr =  8.59E-10,  avg # of iterations =  6.0

     negative rho (up, down):  1.904E-03 0.000E+00

     total cpu time spent up to now is       42.4 secs

     total energy              =     -34.77738114 Ry
     estimated scf accuracy    <       0.00000005 Ry

     iteration #  3     ecut=    40.00 Ry     beta= 0.70
     Davidson diagonalization with overlap
     ethr =  6.63E-10,  avg # of iterations =  1.0

     negative rho (up, down):  1.904E-03 0.000E+00

     total cpu time spent up to now is       43.6 secs

     total energy              =     -34.77738114 Ry
     estimated scf accuracy    <       0.00000001 Ry

     iteration #  4     ecut=    40.00 Ry     beta= 0.70
     Davidson diagonalization with overlap
     ethr =  1.54E-10,  avg # of iterations =  5.0

     negative rho (up, down):  1.905E-03 0.000E+00

     total cpu time spent up to now is       45.0 secs

     total energy              =     -34.77738114 Ry
     estimated scf accuracy    <       0.00000003 Ry

     iteration #  5     ecut=    40.00 Ry     beta= 0.70
     Davidson diagonalization with overlap
     ethr =  1.54E-10,  avg # of iterations =  2.0

     negative rho (up, down):  1.905E-03 0.000E+00

     total cpu time spent up to now is       46.2 secs

     End of self-consistent calculation

          k = 0.0000 0.0000 0.0000 ( 28671 PWs)   bands (ev):

   -25.1714 -12.9510  -9.1743  -7.1023

     highest occupied level (ev):    -7.1023

!    total energy              =     -34.77738114 Ry
     estimated scf accuracy    <          9.2E-09 Ry

     The total energy is the sum of the following terms:
     one-electron contribution =     -63.24338878 Ry
     hartree contribution      =      33.14111678 Ry
     xc contribution           =      -8.84941673 Ry
     ewald contribution        =       4.17430759 Ry

     convergence has been achieved in   5 iterations

     negative rho (up, down):  1.905E-03 0.000E+00

     Forces acting on atoms (cartesian axes, Ry/au):

     atom    1 type  2   force =     0.00000000    0.00010988    0.00000000
     atom    2 type  1   force =     0.00006138   -0.00005494    0.00000000
     atom    3 type  1   force =    -0.00006138   -0.00005494    0.00000000

     Total force =     0.000160     Total SCF correction =     0.000131
     SCF correction compared to forces is large: reduce conv_thr to get better values
     Energy error            =      2.2E-07 Ry
     Gradient error          =      1.1E-04 Ry/Bohr

     number of scf cycles    =   5
     number of bfgs steps    =   4

     energy             old  =     -34.7773809124 Ry
     energy             new  =     -34.7773811370 Ry

     CASE: energy            _new < energy            _old

     new trust radius        =       0.0002564970 bohr
     new conv_thr            =       0.0000000100 Ry


ATOMIC_POSITIONS (angstrom)
O             0.0000000000       -0.0067365620        0.0000000000
H             0.7679536934        0.5893682811        0.0000000000
H            -0.7679536934        0.5893682811        0.0000000000



     Writing config-only to output data dir ./data/scf.save/
     NEW-OLD atomic charge density approx. for the potential

     negative rho (up, down):  1.904E-03 0.000E+00

     total cpu time spent up to now is       48.2 secs

     Self-consistent Calculation

     iteration #  1     ecut=    40.00 Ry     beta= 0.70
     Davidson diagonalization with overlap
     ethr =  1.00E-06,  avg # of iterations =  2.0

     Threshold (ethr) on eigenvalues was too large:
     Diagonalizing with lowered threshold

     Davidson diagonalization with overlap
     ethr =  9.57E-11,  avg # of iterations =  8.0

     negative rho (up, down):  1.904E-03 0.000E+00

     total cpu time spent up to now is       50.2 secs

     total energy              =     -34.77738118 Ry
     estimated scf accuracy    <       0.00000005 Ry

     iteration #  2     ecut=    40.00 Ry     beta= 0.70
     Davidson diagonalization with overlap
     ethr =  6.15E-10,  avg # of iterations =  4.0

     negative rho (up, down):  1.905E-03 0.000E+00

     total cpu time spent up to now is       51.4 secs

     End of self-consistent calculation

          k = 0.0000 0.0000 0.0000 ( 28671 PWs)   bands (ev):

   -25.1719 -12.9530  -9.1740  -7.1031

     highest occupied level (ev):    -7.1031

!    total energy              =     -34.77738120 Ry
     estimated scf accuracy    <          7.7E-09 Ry

     The total energy is the sum of the following terms:
     one-electron contribution =     -63.24307918 Ry
     hartree contribution      =      33.14069283 Ry
     xc contribution           =      -8.84934876 Ry
     ewald contribution        =       4.17435391 Ry

     convergence has been achieved in   2 iterations

     negative rho (up, down):  1.905E-03 0.000E+00

     Forces acting on atoms (cartesian axes, Ry/au):

     atom    1 type  2   force =     0.00000000    0.00011929    0.00000000
     atom    2 type  1   force =     0.00005227   -0.00005965    0.00000000
     atom    3 type  1   force =    -0.00005227   -0.00005965    0.00000000

     Total force =     0.000164     Total SCF correction =     0.000046
     SCF correction compared to forces is large: reduce conv_thr to get better values
     Energy error            =      6.1E-08 Ry
     Gradient error          =      1.2E-04 Ry/Bohr

     number of scf cycles    =   6
     number of bfgs steps    =   5

     energy             old  =     -34.7773811370 Ry
     energy             new  =     -34.7773811978 Ry

     CASE: energy            _new < energy            _old


     WARNING: bfgs curvature condition failed, Theta= 0.813
     new trust radius        =       0.0002821467 bohr
     new conv_thr            =       0.0000000100 Ry


ATOMIC_POSITIONS (angstrom)
O             0.0000000000       -0.0066060307        0.0000000000
H             0.7680879788        0.5893030154        0.0000000000
H            -0.7680879788        0.5893030154        0.0000000000



     Writing config-only to output data dir ./data/scf.save/
     NEW-OLD atomic charge density approx. for the potential

     negative rho (up, down):  1.904E-03 0.000E+00

     total cpu time spent up to now is       53.3 secs

     Self-consistent Calculation

     iteration #  1     ecut=    40.00 Ry     beta= 0.70
     Davidson diagonalization with overlap
     ethr =  1.00E-06,  avg # of iterations =  2.0

     Threshold (ethr) on eigenvalues was too large:
     Diagonalizing with lowered threshold

     Davidson diagonalization with overlap
     ethr =  3.57E-10,  avg # of iterations =  4.0

     negative rho (up, down):  1.905E-03 0.000E+00

     total cpu time spent up to now is       55.1 secs

     End of self-consistent calculation

          k = 0.0000 0.0000 0.0000 ( 28671 PWs)   bands (ev):

   -25.1707 -12.9539  -9.1717  -7.1021

     highest occupied level (ev):    -7.1021

!    total energy              =     -34.77738119 Ry
     estimated scf accuracy    <          9.0E-09 Ry

     The total energy is the sum of the following terms:
     one-electron contribution =     -63.24348703 Ry
     hartree contribution      =      33.14108675 Ry
     xc contribution           =      -8.84940317 Ry
     ewald contribution        =       4.17442226 Ry

     convergence has been achieved in   1 iterations

     negative rho (up, down):  1.905E-03 0.000E+00

     Forces acting on atoms (cartesian axes, Ry/au):

     atom    1 type  2   force =     0.00000000   -0.00016331    0.00000000
     atom    2 type  1   force =    -0.00002669    0.00008166    0.00000000
     atom    3 type  1   force =     0.00002669    0.00008166    0.00000000

     Total force =     0.000204     Total SCF correction =     0.000036
     SCF correction compared to forces is large: reduce conv_thr to get better values
     Energy error            =      1.0E-08 Ry
     Gradient error          =      1.6E-04 Ry/Bohr

     number of scf cycles    =   7
     number of bfgs steps    =   6

     energy             old  =     -34.7773811978 Ry
     energy             new  =     -34.7773811874 Ry

     CASE: energy            _new > energy            _old

     new trust radius        =       0.0001230601 bohr
     new conv_thr            =       0.0000000100 Ry


ATOMIC_POSITIONS (angstrom)
O             0.0000000000       -0.0066796299        0.0000000000
H             0.7680122628        0.5893398150        0.0000000000
H            -0.7680122628        0.5893398150        0.0000000000



     Writing config-only to output data dir ./data/scf.save/
     NEW-OLD atomic charge density approx. for the potential

     negative rho (up, down):  1.905E-03 0.000E+00

     total cpu time spent up to now is       57.0 secs

     Self-consistent Calculation

     iteration #  1     ecut=    40.00 Ry     beta= 0.70
     Davidson diagonalization with overlap
     ethr =  1.00E-06,  avg # of iterations =  2.0

     Threshold (ethr) on eigenvalues was too large:
     Diagonalizing with lowered threshold

     Davidson diagonalization with overlap
     ethr =  5.69E-10,  avg # of iterations =  3.0

     negative rho (up, down):  1.904E-03 0.000E+00

     total cpu time spent up to now is       58.9 secs

     total energy              =     -34.77738118 Ry
     estimated scf accuracy    <       0.00000005 Ry

     iteration #  2     ecut=    40.00 Ry     beta= 0.70
     Davidson diagonalization with overlap
     ethr =  6.09E-10,  avg # of iterations =  7.0

     negative rho (up, down):  1.905E-03 0.000E+00

     total cpu time spent up to now is       60.3 secs

     total energy              =     -34.77738120 Ry
     estimated scf accuracy    <       0.00000003 Ry

     iteration #  3     ecut=    40.00 Ry     beta= 0.70
     Davidson diagonalization with overlap
     ethr =  4.03E-10,  avg # of iterations =  2.0

     negative rho (up, down):  1.905E-03 0.000E+00

     total cpu time spent up to now is       61.4 secs

     End of self-consistent calculation

          k = 0.0000 0.0000 0.0000 ( 28671 PWs)   bands (ev):

   -25.1709 -12.9530  -9.1726  -7.1022

     highest occupied level (ev):    -7.1022

!    total energy              =     -34.77738120 Ry
     estimated scf accuracy    <          6.9E-09 Ry

     The total energy is the sum of the following terms:
     one-electron contribution =     -63.24347284 Ry
     hartree contribution      =      33.14112430 Ry
     xc contribution           =      -8.84941647 Ry
     ewald contribution        =       4.17438381 Ry

     convergence has been achieved in   3 iterations

     negative rho (up, down):  1.905E-03 0.000E+00

     Forces acting on atoms (cartesian axes, Ry/au):

     atom    1 type  2   force =     0.00000000   -0.00000354    0.00000000
     atom    2 type  1   force =    -0.00000500    0.00000177    0.00000000
     atom    3 type  1   force =     0.00000500    0.00000177    0.00000000

     Total force =     0.000008     Total SCF correction =     0.000107
     SCF correction compared to forces is large: reduce conv_thr to get better values
     Energy error            =      1.6E-11 Ry
     Gradient error          =      5.0E-06 Ry/Bohr

     bfgs converged in   8 scf cycles and   6 bfgs steps
     (criteria: energy <  1.0E-04 Ry, force <  1.0E-04 Ry/Bohr)

     End of BFGS Geometry Optimization

     Final energy             =     -34.7773811978 Ry

     File ./data/scf.bfgs deleted, as requested
Begin final coordinates

ATOMIC_POSITIONS (angstrom)
O             0.0000000000       -0.0066796299        0.0000000000
H             0.7680122628        0.5893398150        0.0000000000
H            -0.7680122628        0.5893398150        0.0000000000
End final coordinates



     Writing all to output data dir ./data/scf.save/

     init_run     :      1.30s CPU      1.58s WALL (       1 calls)
     electrons    :     45.15s CPU     46.36s WALL (       8 calls)
     update_pot   :      3.70s CPU      3.90s WALL (       7 calls)
     forces       :      7.80s CPU      8.12s WALL (       8 calls)

     Called by init_run:
     wfcinit      :      0.08s CPU      0.12s WALL (       1 calls)
     potinit      :      0.46s CPU      0.53s WALL (       1 calls)
     hinit0       :      0.25s CPU      0.28s WALL (       1 calls)

     Called by electrons:
     c_bands      :      7.74s CPU      7.69s WALL (      39 calls)
     sum_band     :     14.96s CPU     13.99s WALL (      39 calls)
     v_of_rho     :     14.53s CPU     15.54s WALL (      40 calls)
     newd         :      9.52s CPU     10.54s WALL (      40 calls)
     mix_rho      :      1.67s CPU      2.05s WALL (      39 calls)

     Called by c_bands:
     init_us_2    :      0.21s CPU      0.21s WALL (      79 calls)
     init_us_2:cp :      0.21s CPU      0.21s WALL (      79 calls)
     cegterg      :      7.50s CPU      7.40s WALL (      39 calls)

     Called by *egterg:
     cdiaghg      :      0.01s CPU      0.04s WALL (     178 calls)
     h_psi        :      6.57s CPU      6.61s WALL (     193 calls)
     s_psi        :      0.22s CPU      0.11s WALL (     193 calls)
     g_psi        :      0.04s CPU      0.04s WALL (     153 calls)

     Called by h_psi:
     h_psi:calbec :      0.19s CPU      0.24s WALL (     193 calls)
     vloc_psi     :      6.12s CPU      6.17s WALL (     193 calls)
     add_vuspsi   :      0.22s CPU      0.17s WALL (     193 calls)

     General routines
     calbec       :      0.27s CPU      0.34s WALL (     264 calls)
     fft          :     11.87s CPU     11.93s WALL (     606 calls)
     ffts         :      0.60s CPU      0.61s WALL (      79 calls)
     fftw         :      6.05s CPU      6.09s WALL (    1354 calls)
     interpolate  :      1.35s CPU      1.43s WALL (      40 calls)


     PWSCF        :   1m 0.22s CPU   1m 2.59s WALL


   This run was terminated on:  12:39:39  23Oct2023            

=------------------------------------------------------------------------------=
   JOB DONE.
=------------------------------------------------------------------------------=
