
     Program PWSCF v.7.1 starts on 23Oct2023 at 12:48:38 

     This program is part of the open-source Quantum ESPRESSO suite
     for quantum simulation of materials; please cite
         "P. Giannozzi et al., J. Phys.:Condens. Matter 21 395502 (2009);
         "P. Giannozzi et al., J. Phys.:Condens. Matter 29 465901 (2017);
         "P. Giannozzi et al., J. Chem. Phys. 152 154105 (2020);
          URL http://www.quantum-espresso.org", 
     in publications or presentations arising from this work. More details at
     http://www.quantum-espresso.org/quote

     Serial version
     0 MiB available memory on the printing compute node when the environment starts

     Reading input from espresso.pwi
Warning: card &CELL ignored
Warning: card / ignored

     Current dimensions of program PWSCF are:
     Max number of different atomic species (ntypx) = 10
     Max number of k-points (npk) =  40000
     Max angular momentum in pseudopotentials (lmaxx) =  4
     Message from routine setup:
     using ibrav=0 with symmetry is DISCOURAGED, use correct ibrav instead


     G-vector sticks info
     --------------------
     sticks:   dense  smooth     PW     G-vecs:    dense   smooth      PW
     Sum        9085    4537   1129               652671   230389   28671

     Using Slab Decomposition



     bravais-lattice index     =            0
     lattice parameter (alat)  =      18.8973  a.u.
     unit-cell volume          =    6748.3345 (a.u.)^3
     number of atoms/cell      =            3
     number of atomic types    =            2
     number of electrons       =         8.00
     number of Kohn-Sham states=            4
     kinetic-energy cutoff     =      40.0000  Ry
     charge density cutoff     =     320.0000  Ry
     scf convergence threshold =      1.0E-06
     mixing beta               =       0.7000
     number of iterations used =            8  plain     mixing
     Exchange-correlation= PBE
                           (   1   4   3   4   0   0   0)

     celldm(1)=  18.897261  celldm(2)=   0.000000  celldm(3)=   0.000000
     celldm(4)=   0.000000  celldm(5)=   0.000000  celldm(6)=   0.000000

     crystal axes: (cart. coord. in units of alat)
               a(1) = (   1.000000   0.000000   0.000000 )  
               a(2) = (   0.000000   1.000000   0.000000 )  
               a(3) = (   0.000000   0.000000   1.000000 )  

     reciprocal axes: (cart. coord. in units 2 pi/alat)
               b(1) = (  1.000000  0.000000  0.000000 )  
               b(2) = (  0.000000  1.000000  0.000000 )  
               b(3) = (  0.000000  0.000000  1.000000 )  


     PseudoPot. # 1 for H  read from file:
     /Users/genmasahiko/Program/pp/H.pbe-rrkjus_psl.1.0.0.UPF
     MD5 check sum: 3f4114867bd07edc7f1424d066fc1888
     Pseudo is Ultrasoft, Zval =  1.0
     Generated using &quot;atomic&quot; code by A. Dal Corso  v.6.3MaX
     Using radial grid of  929 points,  2 beta functions with: 
                l(1) =   0
                l(2) =   0
     Q(r) pseudized with 0 coefficients 


     PseudoPot. # 2 for O  read from file:
     /Users/genmasahiko/Program/pp/O.pbe-n-rrkjus_psl.1.0.0.UPF
     MD5 check sum: 91400c9766925bcf19f520983a725ff0
     Pseudo is Ultrasoft + core correction, Zval =  6.0
     Generated using &quot;atomic&quot; code by A. Dal Corso  v.6.3MaX
     Using radial grid of 1095 points,  4 beta functions with: 
                l(1) =   0
                l(2) =   0
                l(3) =   1
                l(4) =   1
     Q(r) pseudized with 0 coefficients 


     atomic species   valence    mass     pseudopotential
        H              1.00     1.00800     H ( 1.00)
        O              6.00    15.99900     O ( 1.00)

      2 Sym. Ops. (no inversion) found



   Cartesian axes

     site n.     atom                  positions (alat units)
         1           H   tau(   1) = (   0.0768012   0.0589340   0.0000000  )
         2           H   tau(   2) = (  -0.0768012   0.0589340   0.0000000  )
         3           O   tau(   3) = (   0.0000000  -0.0006680   0.0010000  )

     number of k points=     1
                       cart. coord. in units 2pi/alat
        k(    1) = (   0.0000000   0.0000000   0.0000000), wk =   2.0000000

     Dense  grid:   652671 G-vectors     FFT dimensions: ( 108, 108, 108)

     Smooth grid:   230389 G-vectors     FFT dimensions: (  80,  80,  80)

     Estimated max dynamical RAM per process >     855.49 MB

     Initial potential from superposition of free atoms

     starting charge       8.0000, renormalised to       8.0000

     negative rho (up, down):  1.463E-03 0.000E+00
     Starting wfcs are    6 randomized atomic wfcs

     total cpu time spent up to now is        1.6 secs

     Self-consistent Calculation

     iteration #  1     ecut=    40.00 Ry     beta= 0.70
     Davidson diagonalization with overlap
     ethr =  1.00E-02,  avg # of iterations =  3.0

     negative rho (up, down):  1.939E-03 0.000E+00

     total cpu time spent up to now is        2.9 secs

     total energy              =     -34.54217478 Ry
     estimated scf accuracy    <       0.49629826 Ry

     iteration #  2     ecut=    40.00 Ry     beta= 0.70
     Davidson diagonalization with overlap
     ethr =  6.20E-03,  avg # of iterations =  4.0

     negative rho (up, down):  2.225E-03 0.000E+00

     total cpu time spent up to now is        4.3 secs

     total energy              =     -34.75796268 Ry
     estimated scf accuracy    <       0.12421932 Ry

     iteration #  3     ecut=    40.00 Ry     beta= 0.70
     Davidson diagonalization with overlap
     ethr =  1.55E-03,  avg # of iterations =  3.0

     negative rho (up, down):  2.402E-03 0.000E+00

     total cpu time spent up to now is        5.5 secs

     total energy              =     -34.76705697 Ry
     estimated scf accuracy    <       0.03310273 Ry

     iteration #  4     ecut=    40.00 Ry     beta= 0.70
     Davidson diagonalization with overlap
     ethr =  4.14E-04,  avg # of iterations =  2.0

     negative rho (up, down):  1.910E-03 0.000E+00

     total cpu time spent up to now is        6.8 secs

     total energy              =     -34.77470082 Ry
     estimated scf accuracy    <       0.00152519 Ry

     iteration #  5     ecut=    40.00 Ry     beta= 0.70
     Davidson diagonalization with overlap
     ethr =  1.91E-05,  avg # of iterations =  7.0

     negative rho (up, down):  1.923E-03 0.000E+00

     total cpu time spent up to now is        8.2 secs

     total energy              =     -34.77658329 Ry
     estimated scf accuracy    <       0.00315626 Ry

     iteration #  6     ecut=    40.00 Ry     beta= 0.70
     Davidson diagonalization with overlap
     ethr =  1.91E-05,  avg # of iterations =  5.0

     negative rho (up, down):  1.908E-03 0.000E+00

     total cpu time spent up to now is        9.5 secs

     total energy              =     -34.77724691 Ry
     estimated scf accuracy    <       0.00002833 Ry

     iteration #  7     ecut=    40.00 Ry     beta= 0.70
     Davidson diagonalization with overlap
     ethr =  3.54E-07,  avg # of iterations = 10.0

     negative rho (up, down):  1.897E-03 0.000E+00

     total cpu time spent up to now is       11.1 secs

     total energy              =     -34.77740804 Ry
     estimated scf accuracy    <       0.00027923 Ry

     iteration #  8     ecut=    40.00 Ry     beta= 0.70
     Davidson diagonalization with overlap
     ethr =  3.54E-07,  avg # of iterations =  2.0

     negative rho (up, down):  1.896E-03 0.000E+00

     total cpu time spent up to now is       12.3 secs

     total energy              =     -34.77732135 Ry
     estimated scf accuracy    <       0.00016130 Ry

     iteration #  9     ecut=    40.00 Ry     beta= 0.70
     Davidson diagonalization with overlap
     ethr =  3.54E-07,  avg # of iterations =  8.0

     negative rho (up, down):  1.903E-03 0.000E+00

     total cpu time spent up to now is       13.8 secs

     total energy              =     -34.77738480 Ry
     estimated scf accuracy    <       0.00002419 Ry

     iteration # 10     ecut=    40.00 Ry     beta= 0.70
     Davidson diagonalization with overlap
     ethr =  3.02E-07,  avg # of iterations =  1.0

     negative rho (up, down):  1.906E-03 0.000E+00

     total cpu time spent up to now is       15.0 secs

     total energy              =     -34.77737418 Ry
     estimated scf accuracy    <       0.00001874 Ry

     iteration # 11     ecut=    40.00 Ry     beta= 0.70
     Davidson diagonalization with overlap
     ethr =  2.34E-07,  avg # of iterations =  5.0

     negative rho (up, down):  1.904E-03 0.000E+00

     total cpu time spent up to now is       16.4 secs

     total energy              =     -34.77738140 Ry
     estimated scf accuracy    <       0.00000200 Ry

     iteration # 12     ecut=    40.00 Ry     beta= 0.70
     Davidson diagonalization with overlap
     ethr =  2.50E-08,  avg # of iterations =  4.0

     negative rho (up, down):  1.903E-03 0.000E+00

     total cpu time spent up to now is       17.7 secs

     total energy              =     -34.77738125 Ry
     estimated scf accuracy    <       0.00000394 Ry

     iteration # 13     ecut=    40.00 Ry     beta= 0.70
     Davidson diagonalization with overlap
     ethr =  2.50E-08,  avg # of iterations =  1.0

     negative rho (up, down):  1.902E-03 0.000E+00

     total cpu time spent up to now is       18.9 secs

     total energy              =     -34.77738065 Ry
     estimated scf accuracy    <       0.00000177 Ry

     iteration # 14     ecut=    40.00 Ry     beta= 0.70
     Davidson diagonalization with overlap
     ethr =  2.21E-08,  avg # of iterations =  4.0

     negative rho (up, down):  1.902E-03 0.000E+00

     total cpu time spent up to now is       20.2 secs

     End of self-consistent calculation

          k = 0.0000 0.0000 0.0000 ( 28671 PWs)   bands (ev):

   -25.1711 -12.9527  -9.1738  -7.1031

     highest occupied level (ev):    -7.1031

!    total energy              =     -34.77738119 Ry
     estimated scf accuracy    <       0.00000002 Ry

     The total energy is the sum of the following terms:
     one-electron contribution =     -63.24101136 Ry
     hartree contribution      =      33.13895910 Ry
     xc contribution           =      -8.84902419 Ry
     ewald contribution        =       4.17369526 Ry

     convergence has been achieved in  14 iterations

     negative rho (up, down):  1.902E-03 0.000E+00

     Forces acting on atoms (cartesian axes, Ry/au):

     atom    1 type  1   force =    -0.00000867   -0.00012044    0.00002226
     atom    2 type  1   force =     0.00000867   -0.00012044    0.00002226
     atom    3 type  2   force =     0.00000000    0.00024088   -0.00004453

     Total force =     0.000300     Total SCF correction =     0.000456
     SCF correction compared to forces is large: reduce conv_thr to get better values

     Writing all to output data dir data/water.save/

     init_run     :      1.34s CPU      1.56s WALL (       1 calls)
     electrons    :     18.48s CPU     18.60s WALL (       1 calls)
     forces       :      0.97s CPU      1.01s WALL (       1 calls)

     Called by init_run:
     wfcinit      :      0.09s CPU      0.09s WALL (       1 calls)
     potinit      :      0.48s CPU      0.54s WALL (       1 calls)
     hinit0       :      0.25s CPU      0.27s WALL (       1 calls)

     Called by electrons:
     c_bands      :      2.87s CPU      2.80s WALL (      14 calls)
     sum_band     :      5.55s CPU      5.02s WALL (      14 calls)
     v_of_rho     :      5.43s CPU      5.76s WALL (      15 calls)
     newd         :      3.61s CPU      3.88s WALL (      15 calls)
     mix_rho      :      1.05s CPU      1.25s WALL (      14 calls)

     Called by c_bands:
     init_us_2    :      0.08s CPU      0.08s WALL (      29 calls)
     init_us_2:cp :      0.08s CPU      0.08s WALL (      29 calls)
     cegterg      :      2.78s CPU      2.70s WALL (      14 calls)

     Called by *egterg:
     cdiaghg      :      0.00s CPU      0.00s WALL (      73 calls)
     h_psi        :      2.47s CPU      2.48s WALL (      74 calls)
     s_psi        :      0.08s CPU      0.04s WALL (      74 calls)
     g_psi        :      0.01s CPU      0.01s WALL (      59 calls)

     Called by h_psi:
     h_psi:calbec :      0.07s CPU      0.09s WALL (      74 calls)
     vloc_psi     :      2.31s CPU      2.32s WALL (      74 calls)
     add_vuspsi   :      0.08s CPU      0.05s WALL (      74 calls)

     General routines
     calbec       :      0.09s CPU      0.11s WALL (      92 calls)
     fft          :      3.95s CPU      3.97s WALL (     204 calls)
     ffts         :      0.22s CPU      0.22s WALL (      29 calls)
     fftw         :      2.26s CPU      2.27s WALL (     514 calls)
     interpolate  :      0.51s CPU      0.54s WALL (      15 calls)


     PWSCF        :     20.87s CPU     21.31s WALL


   This run was terminated on:  12:48:59  23Oct2023            

=------------------------------------------------------------------------------=
   JOB DONE.
=------------------------------------------------------------------------------=
