
     Program PWSCF v.7.5 starts on 22Mar2026 at 22:12:18 

     This program is part of the open-source Quantum ESPRESSO suite
     for quantum simulation of materials; please cite
         "P. Giannozzi et al., J. Phys.:Condens. Matter 21 395502 (2009);
         "P. Giannozzi et al., J. Phys.:Condens. Matter 29 465901 (2017);
         "P. Giannozzi et al., J. Chem. Phys. 152 154105 (2020);
          URL http://www.quantum-espresso.org", 
     in publications or presentations arising from this work. More details at
     http://www.quantum-espresso.org/quote

     Parallel version (MPI), running on     2 processors

     MPI processes distributed on     1 nodes
     0 MiB available memory on the printing compute node when the environment starts

     Waiting for input...
     Reading input from standard input

     Current dimensions of program PWSCF are:
     Max number of different atomic species (ntypx) = 10
     Max number of k-points (npk) =  40000
     Max angular momentum in pseudopotentials (lmaxx) =  4
     file H.pbe-kjpaw_psl.1.0.0.UPF: wavefunction(s)  1S renormalized
     file O.pbe-n-kjpaw_psl.1.0.0.UPF: wavefunction(s)  2S 2P renormalized

     gamma-point specific algorithms are used

     R & G space division:  proc/nbgrp/npool/nimage =       2
     Subspace diagonalization in iterative solution of the eigenvalue problem:
     a serial algorithm will be used


     Parallelization info
     --------------------
     sticks:   dense  smooth     PW     G-vecs:    dense   smooth      PW
     Min       11450    5724   1434              1566110   553704   69226
     Max       11451    5725   1435              1566115   553705   69235
     Sum       22901   11449   2869              3132225  1107409  138461

     Using Slab Decomposition



     bravais-lattice index     =            0
     lattice parameter (alat)  =      20.0000  a.u.
     unit-cell volume          =    9599.9885 (a.u.)^3
     number of atoms/cell      =            3
     number of atomic types    =            2
     number of electrons       =         8.00
     number of Kohn-Sham states=            8
     kinetic-energy cutoff     =      90.0000  Ry
     charge density cutoff     =     720.0000  Ry
     scf convergence threshold =      1.0E-06
     mixing beta               =       0.3000
     number of iterations used =            8  plain     mixing
     energy convergence thresh.=      1.0E-04
     force convergence thresh. =      3.9E-05
     Exchange-correlation= SLA  PW   PBX  PBC
                           (   1   4   3   4   0   0   0)
     nstep                     =           50


     Effective Screening Medium Method
     =================================
     Ordinary Periodic Boundary Conditions
     total charge in unit cell        =   0.0000
     grid points for fit at edges     =        4 


     celldm(1)=  19.999992  celldm(2)=   0.000000  celldm(3)=   0.000000
     celldm(4)=   0.000000  celldm(5)=   0.000000  celldm(6)=   0.000000

     crystal axes: (cart. coord. in units of alat)
               a(1) = (   1.000000   0.000000   0.000000 )  
               a(2) = (   0.000000   1.000000   0.000000 )  
               a(3) = (   0.000000   0.000000   1.200000 )  

     reciprocal axes: (cart. coord. in units 2 pi/alat)
               b(1) = (  1.000000  0.000000  0.000000 )  
               b(2) = (  0.000000  1.000000  0.000000 )  
               b(3) = (  0.000000  0.000000  0.833333 )  


     PseudoPot. # 1 for H  read from file:
     /Users/gen/program/pp/H.pbe-kjpaw_psl.1.0.0.UPF
     MD5 check sum: d81a744832360e4a8af0b0b5b123bc2a
     Pseudo is Projector augmented-wave, Zval =  1.0
     Generated using &quot;atomic&quot; code by A. Dal Corso  v.6.3MaX
     Shape of augmentation charge: PSQ
     Using radial grid of  929 points,  2 beta functions with: 
                l(1) =   0
                l(2) =   0
     Q(r) pseudized with 0 coefficients 


     PseudoPot. # 2 for O  read from file:
     /Users/gen/program/pp/O.pbe-n-kjpaw_psl.1.0.0.UPF
     MD5 check sum: e99d9cef9b487d1ca56f5b95ecd0fd7a
     Pseudo is Projector augmented-wave + core cor, Zval =  6.0
     Generated using &quot;atomic&quot; code by A. Dal Corso  v.6.3
     Shape of augmentation charge: PSQ
     Using radial grid of 1095 points,  4 beta functions with: 
                l(1) =   0
                l(2) =   0
                l(3) =   1
                l(4) =   1
     Q(r) pseudized with 0 coefficients 


     atomic species   valence    mass     pseudopotential
     H                 1.00     1.00794     H ( 1.00)
     O                 6.00    55.84700     O ( 1.00)

     No symmetry found



   Cartesian axes

     site n.     atom                  positions (alat units)
         1        O      tau(   1) = (   0.0000000   0.5000000   0.0000000  )
         2        H      tau(   2) = (   0.0431388   0.4310286   0.0430783  )
         3        H      tau(   3) = (   0.0366354   0.5764064   0.0359492  )

     number of k points=     1  Methfessel-Paxton smearing, width (Ry)=  0.0300
                       cart. coord. in units 2pi/alat
        k(    1) = (   0.0000000   0.0000000   0.0000000), wk =   2.0000000

     Dense  grid:  1566113 G-vectors     FFT dimensions: ( 180, 180, 216)

     Smooth grid:   553705 G-vectors     FFT dimensions: ( 125, 125, 150)

     Estimated max dynamical RAM per process >       1.14 GB

     Estimated total dynamical RAM >       2.28 GB

     Initial potential from superposition of free atoms

     starting charge       8.0000, renormalised to       8.0000

     negative rho (up, down):  2.068E-04 0.000E+00
     Starting wfcs are    6 randomized atomic wfcs +    2 random wfcs
     Checking if some PAW data can be deallocated... 

     total cpu time spent up to now is        2.2 secs

     Self-consistent Calculation

     iteration #  1     ecut=    90.00 Ry     beta= 0.30
     Davidson diagonalization with overlap
     ethr =  1.00E-02,  avg # of iterations =  7.0

     negative rho (up, down):  1.791E-04 0.000E+00

     total cpu time spent up to now is        5.7 secs

     total energy              =     -43.98248273 Ry
     estimated scf accuracy    <       0.45730129 Ry

     iteration #  2     ecut=    90.00 Ry     beta= 0.30
     Davidson diagonalization with overlap
     ethr =  5.72E-03,  avg # of iterations =  1.0

     negative rho (up, down):  7.133E-05 0.000E+00

     total cpu time spent up to now is        8.0 secs

     total energy              =     -43.98105016 Ry
     estimated scf accuracy    <       0.08613298 Ry

     iteration #  3     ecut=    90.00 Ry     beta= 0.30
     Davidson diagonalization with overlap
     ethr =  1.08E-03,  avg # of iterations =  3.0

     negative rho (up, down):  1.053E-04 0.000E+00

     total cpu time spent up to now is       10.0 secs

     total energy              =     -44.02779074 Ry
     estimated scf accuracy    <       0.05519386 Ry

     iteration #  4     ecut=    90.00 Ry     beta= 0.30
     Davidson diagonalization with overlap
     ethr =  6.90E-04,  avg # of iterations =  5.0

     negative rho (up, down):  3.490E-04 0.000E+00

     total cpu time spent up to now is       11.9 secs

     total energy              =     -44.04096483 Ry
     estimated scf accuracy    <       0.01201838 Ry

     iteration #  5     ecut=    90.00 Ry     beta= 0.30
     Davidson diagonalization with overlap
     ethr =  1.50E-04,  avg # of iterations = 10.0

     negative rho (up, down):  2.057E-04 0.000E+00

     total cpu time spent up to now is       14.0 secs

     total energy              =     -44.03829982 Ry
     estimated scf accuracy    <       0.00796043 Ry

     iteration #  6     ecut=    90.00 Ry     beta= 0.30
     Davidson diagonalization with overlap
     ethr =  9.95E-05,  avg # of iterations =  2.0

     negative rho (up, down):  1.855E-04 0.000E+00

     total cpu time spent up to now is       15.8 secs

     total energy              =     -44.03883206 Ry
     estimated scf accuracy    <       0.00072887 Ry

     iteration #  7     ecut=    90.00 Ry     beta= 0.30
     Davidson diagonalization with overlap
     ethr =  9.11E-06,  avg # of iterations = 12.0

     negative rho (up, down):  1.854E-04 0.000E+00

     total cpu time spent up to now is       18.1 secs

     total energy              =     -44.03993335 Ry
     estimated scf accuracy    <       0.00052415 Ry

     iteration #  8     ecut=    90.00 Ry     beta= 0.30
     Davidson diagonalization with overlap
     ethr =  6.55E-06,  avg # of iterations =  2.0

     negative rho (up, down):  1.891E-04 0.000E+00

     total cpu time spent up to now is       19.9 secs

     total energy              =     -44.03987101 Ry
     estimated scf accuracy    <       0.00051351 Ry

     iteration #  9     ecut=    90.00 Ry     beta= 0.30
     Davidson diagonalization with overlap
     ethr =  6.42E-06,  avg # of iterations =  9.0

     negative rho (up, down):  2.424E-04 0.000E+00

     total cpu time spent up to now is       21.9 secs

     total energy              =     -44.03966103 Ry
     estimated scf accuracy    <       0.00034028 Ry

     iteration # 10     ecut=    90.00 Ry     beta= 0.30
     Davidson diagonalization with overlap
     ethr =  4.25E-06,  avg # of iterations =  4.0

     negative rho (up, down):  2.406E-04 0.000E+00

     total cpu time spent up to now is       23.8 secs

     total energy              =     -44.03977567 Ry
     estimated scf accuracy    <       0.00006578 Ry

     iteration # 11     ecut=    90.00 Ry     beta= 0.30
     Davidson diagonalization with overlap
     ethr =  8.22E-07,  avg # of iterations =  4.0

     negative rho (up, down):  2.435E-04 0.000E+00

     total cpu time spent up to now is       25.6 secs

     total energy              =     -44.03980893 Ry
     estimated scf accuracy    <       0.00008735 Ry

     iteration # 12     ecut=    90.00 Ry     beta= 0.30
     Davidson diagonalization with overlap
     ethr =  8.22E-07,  avg # of iterations =  1.0

     negative rho (up, down):  2.414E-04 0.000E+00

     total cpu time spent up to now is       27.4 secs

     total energy              =     -44.03978171 Ry
     estimated scf accuracy    <       0.00009236 Ry

     iteration # 13     ecut=    90.00 Ry     beta= 0.30
     Davidson diagonalization with overlap
     ethr =  8.22E-07,  avg # of iterations =  1.0

     negative rho (up, down):  2.416E-04 0.000E+00

     total cpu time spent up to now is       29.1 secs

     total energy              =     -44.03978196 Ry
     estimated scf accuracy    <       0.00003372 Ry

     iteration # 14     ecut=    90.00 Ry     beta= 0.30
     Davidson diagonalization with overlap
     ethr =  4.22E-07,  avg # of iterations =  2.0

     negative rho (up, down):  2.414E-04 0.000E+00

     total cpu time spent up to now is       30.9 secs

     total energy              =     -44.03978528 Ry
     estimated scf accuracy    <       0.00001743 Ry

     iteration # 15     ecut=    90.00 Ry     beta= 0.30
     Davidson diagonalization with overlap
     ethr =  2.18E-07,  avg # of iterations =  1.0

     negative rho (up, down):  2.387E-04 0.000E+00

     total cpu time spent up to now is       32.7 secs

     total energy              =     -44.03978444 Ry
     estimated scf accuracy    <       0.00001437 Ry

     iteration # 16     ecut=    90.00 Ry     beta= 0.30
     Davidson diagonalization with overlap
     ethr =  1.80E-07,  avg # of iterations =  2.0

     negative rho (up, down):  2.378E-04 0.000E+00

     total cpu time spent up to now is       34.7 secs

     total energy              =     -44.03978197 Ry
     estimated scf accuracy    <       0.00000629 Ry

     iteration # 17     ecut=    90.00 Ry     beta= 0.30
     Davidson diagonalization with overlap
     ethr =  7.87E-08,  avg # of iterations =  5.0

     negative rho (up, down):  2.375E-04 0.000E+00

     total cpu time spent up to now is       36.9 secs

     total energy              =     -44.03978802 Ry
     estimated scf accuracy    <       0.00001035 Ry

     iteration # 18     ecut=    90.00 Ry     beta= 0.30
     Davidson diagonalization with overlap
     ethr =  7.87E-08,  avg # of iterations =  1.0

     negative rho (up, down):  2.389E-04 0.000E+00

     total cpu time spent up to now is       38.8 secs

     total energy              =     -44.03978858 Ry
     estimated scf accuracy    <       0.00000675 Ry

     iteration # 19     ecut=    90.00 Ry     beta= 0.30
     Davidson diagonalization with overlap
     ethr =  7.87E-08,  avg # of iterations =  1.0

     negative rho (up, down):  2.393E-04 0.000E+00

     total cpu time spent up to now is       40.6 secs

     total energy              =     -44.03978739 Ry
     estimated scf accuracy    <       0.00000777 Ry

     iteration # 20     ecut=    90.00 Ry     beta= 0.30
     Davidson diagonalization with overlap
     ethr =  7.87E-08,  avg # of iterations =  1.0

     negative rho (up, down):  2.391E-04 0.000E+00

     total cpu time spent up to now is       42.3 secs

     total energy              =     -44.03978851 Ry
     estimated scf accuracy    <       0.00000513 Ry

     iteration # 21     ecut=    90.00 Ry     beta= 0.30
     Davidson diagonalization with overlap
     ethr =  6.41E-08,  avg # of iterations =  1.0

     negative rho (up, down):  2.392E-04 0.000E+00

     total cpu time spent up to now is       44.1 secs

     total energy              =     -44.03978836 Ry
     estimated scf accuracy    <       0.00000722 Ry

     iteration # 22     ecut=    90.00 Ry     beta= 0.30
     Davidson diagonalization with overlap
     ethr =  6.41E-08,  avg # of iterations =  1.0

     negative rho (up, down):  2.394E-04 0.000E+00

     total cpu time spent up to now is       45.8 secs

     total energy              =     -44.03978844 Ry
     estimated scf accuracy    <       0.00000666 Ry

     iteration # 23     ecut=    90.00 Ry     beta= 0.30
     Davidson diagonalization with overlap
     ethr =  6.41E-08,  avg # of iterations =  1.0

     negative rho (up, down):  2.392E-04 0.000E+00

     total cpu time spent up to now is       47.5 secs

     total energy              =     -44.03978970 Ry
     estimated scf accuracy    <       0.00000683 Ry

     iteration # 24     ecut=    90.00 Ry     beta= 0.30
     Davidson diagonalization with overlap
     ethr =  6.41E-08,  avg # of iterations =  1.0

     negative rho (up, down):  2.389E-04 0.000E+00

     total cpu time spent up to now is       50.2 secs

     total energy              =     -44.03979047 Ry
     estimated scf accuracy    <       0.00000948 Ry

     iteration # 25     ecut=    90.00 Ry     beta= 0.30
     Davidson diagonalization with overlap
     ethr =  6.41E-08,  avg # of iterations =  1.0

     negative rho (up, down):  2.427E-04 0.000E+00

     total cpu time spent up to now is       51.9 secs

     total energy              =     -44.03978150 Ry
     estimated scf accuracy    <       0.00001207 Ry

     iteration # 26     ecut=    90.00 Ry     beta= 0.30
     Davidson diagonalization with overlap
     ethr =  6.41E-08,  avg # of iterations =  4.0

     negative rho (up, down):  2.402E-04 0.000E+00

     total cpu time spent up to now is       53.9 secs

     total energy              =     -44.03978399 Ry
     estimated scf accuracy    <       0.00001843 Ry

     iteration # 27     ecut=    90.00 Ry     beta= 0.30
     Davidson diagonalization with overlap
     ethr =  6.41E-08,  avg # of iterations =  4.0

     negative rho (up, down):  2.402E-04 0.000E+00

     total cpu time spent up to now is       55.7 secs

     total energy              =     -44.03978511 Ry
     estimated scf accuracy    <       0.00000195 Ry

     iteration # 28     ecut=    90.00 Ry     beta= 0.30
     Davidson diagonalization with overlap
     ethr =  2.44E-08,  avg # of iterations =  4.0

     negative rho (up, down):  2.395E-04 0.000E+00

     total cpu time spent up to now is       57.4 secs

     End of self-consistent calculation

          k = 0.0000 0.0000 0.0000 ( 69231 PWs)   bands (ev):

   -25.1631 -12.9785  -9.1988  -7.1312  -0.9561   0.2851   0.6691   0.7021

     the Fermi energy is    -3.7234 ev

!    total energy              =     -44.03978658 Ry
     total all-electron energy =      -152.886668 Ry
     estimated scf accuracy    <       0.00000066 Ry
     smearing contrib. (-TS)   =       0.00000000 Ry
     internal energy E=F+TS    =     -44.03978658 Ry

     The total energy is F=E-TS. E is the sum of the following terms:
     one-electron contribution =     -65.16284534 Ry
     hartree contribution      =      34.25363625 Ry
     xc contribution           =      -8.84590413 Ry
     ewald contribution        =       5.30185734 Ry
     one-center paw contrib.   =      -9.58653069 Ry

     convergence has been achieved in  28 iterations

     negative rho (up, down):  2.395E-04 0.000E+00

     Forces acting on atoms (cartesian axes, Ry/au):

     atom    1 type  2   force =     0.00400708    0.00026196    0.00410080
     atom    2 type  1   force =    -0.00227367    0.00526592   -0.00234432
     atom    3 type  1   force =    -0.00173340   -0.00552788   -0.00175648

     Total force =     0.010392     Total SCF correction =     0.000893

     BFGS Geometry Optimization
     Energy error            =      1.1E-04 Ry
     Gradient error          =      5.5E-03 Ry/Bohr

     number of scf cycles    =   1
     number of bfgs steps    =   0

     energy             new  =     -44.0397865775 Ry

     new trust radius        =       0.0061963988 bohr
     new conv_thr            =       0.0000010000 Ry


ATOMIC_POSITIONS (angstrom)
O                0.0021204544        5.2919086227        0.0021700498
H                0.4553580392        4.5645950353        0.4546803513
H                0.3868149431        6.0974949619        0.3795403063



     Writing config-only to output data dir ./H2O.save/ :
     XML data file
     NEW-OLD atomic charge density approx. for the potential

     negative rho (up, down):  2.385E-04 0.000E+00

     total cpu time spent up to now is       60.4 secs

     Self-consistent Calculation

     iteration #  1     ecut=    90.00 Ry     beta= 0.30
     Davidson diagonalization with overlap
     ethr =  1.00E-06,  avg # of iterations =  3.0

     negative rho (up, down):  2.396E-04 0.000E+00

     total cpu time spent up to now is       62.4 secs

     total energy              =     -44.03979640 Ry
     estimated scf accuracy    <       0.00007842 Ry

     iteration #  2     ecut=    90.00 Ry     beta= 0.30
     Davidson diagonalization with overlap
     ethr =  9.80E-07,  avg # of iterations =  1.0

     negative rho (up, down):  2.392E-04 0.000E+00

     total cpu time spent up to now is       64.2 secs

     total energy              =     -44.03979034 Ry
     estimated scf accuracy    <       0.00001928 Ry

     iteration #  3     ecut=    90.00 Ry     beta= 0.30
     Davidson diagonalization with overlap
     ethr =  2.41E-07,  avg # of iterations =  4.0

     negative rho (up, down):  2.394E-04 0.000E+00

     total cpu time spent up to now is       66.1 secs

     total energy              =     -44.03981952 Ry
     estimated scf accuracy    <       0.00002911 Ry

     iteration #  4     ecut=    90.00 Ry     beta= 0.30
     Davidson diagonalization with overlap
     ethr =  2.41E-07,  avg # of iterations =  1.0

     negative rho (up, down):  2.398E-04 0.000E+00

     total cpu time spent up to now is       67.7 secs

     total energy              =     -44.03980897 Ry
     estimated scf accuracy    <       0.00003643 Ry

     iteration #  5     ecut=    90.00 Ry     beta= 0.30
     Davidson diagonalization with overlap
     ethr =  2.41E-07,  avg # of iterations =  1.0

     negative rho (up, down):  2.406E-04 0.000E+00

     total cpu time spent up to now is       69.4 secs

     total energy              =     -44.03980022 Ry
     estimated scf accuracy    <       0.00001510 Ry

     iteration #  6     ecut=    90.00 Ry     beta= 0.30
     Davidson diagonalization with overlap
     ethr =  1.89E-07,  avg # of iterations =  4.0

     negative rho (up, down):  2.406E-04 0.000E+00

     total cpu time spent up to now is       71.3 secs

     total energy              =     -44.03980822 Ry
     estimated scf accuracy    <       0.00000502 Ry

     iteration #  7     ecut=    90.00 Ry     beta= 0.30
     Davidson diagonalization with overlap
     ethr =  6.27E-08,  avg # of iterations =  4.0

     negative rho (up, down):  2.407E-04 0.000E+00

     total cpu time spent up to now is       73.0 secs

     total energy              =     -44.03980914 Ry
     estimated scf accuracy    <       0.00000717 Ry

     iteration #  8     ecut=    90.00 Ry     beta= 0.30
     Davidson diagonalization with overlap
     ethr =  6.27E-08,  avg # of iterations =  1.0

     negative rho (up, down):  2.406E-04 0.000E+00

     total cpu time spent up to now is       74.8 secs

     total energy              =     -44.03980805 Ry
     estimated scf accuracy    <       0.00000634 Ry

     iteration #  9     ecut=    90.00 Ry     beta= 0.30
     Davidson diagonalization with overlap
     ethr =  6.27E-08,  avg # of iterations =  1.0

     negative rho (up, down):  2.401E-04 0.000E+00

     total cpu time spent up to now is       76.6 secs

     total energy              =     -44.03980719 Ry
     estimated scf accuracy    <       0.00000378 Ry

     iteration # 10     ecut=    90.00 Ry     beta= 0.30
     Davidson diagonalization with overlap
     ethr =  4.72E-08,  avg # of iterations =  2.0

     negative rho (up, down):  2.404E-04 0.000E+00

     total cpu time spent up to now is       78.2 secs

     End of self-consistent calculation

          k = 0.0000 0.0000 0.0000 ( 69231 PWs)   bands (ev):

   -25.2222 -13.0412  -9.2022  -7.1486  -0.9425   0.2890   0.6760   0.7052

     the Fermi energy is    -3.7358 ev

!    total energy              =     -44.03980725 Ry
     total all-electron energy =      -152.886689 Ry
     estimated scf accuracy    <       0.00000054 Ry
     smearing contrib. (-TS)   =       0.00000000 Ry
     internal energy E=F+TS    =     -44.03980725 Ry

     The total energy is F=E-TS. E is the sum of the following terms:
     one-electron contribution =     -65.28617681 Ry
     hartree contribution      =      34.31757035 Ry
     xc contribution           =      -8.85677742 Ry
     ewald contribution        =       5.37209910 Ry
     one-center paw contrib.   =      -9.58652248 Ry

     convergence has been achieved in  10 iterations

     negative rho (up, down):  2.404E-04 0.000E+00

     Forces acting on atoms (cartesian axes, Ry/au):

     atom    1 type  2   force =    -0.00422839   -0.00022920   -0.00393873
     atom    2 type  1   force =     0.00222842   -0.00163692    0.00208016
     atom    3 type  1   force =     0.00199997    0.00186612    0.00185857

     Total force =     0.007507     Total SCF correction =     0.000706
     Energy error            =      2.1E-05 Ry
     Gradient error          =      4.2E-03 Ry/Bohr

     number of scf cycles    =   2
     number of bfgs steps    =   1

     energy             old  =     -44.0397865775 Ry
     energy             new  =     -44.0398072504 Ry

     CASE: energy            _new < energy            _old

     new trust radius        =       0.0032842628 bohr
     new conv_thr            =       0.0000000100 Ry


ATOMIC_POSITIONS (angstrom)
O                0.0008455106        5.2918405429        0.0009909068
H                0.4560262325        4.5641868356        0.4552989874
H                0.3874216936        6.0979712414        0.3801008132



     Writing config-only to output data dir ./H2O.save/ :
     XML data file
     NEW-OLD atomic charge density approx. for the potential

     negative rho (up, down):  2.415E-04 0.000E+00

     total cpu time spent up to now is       80.7 secs

     Self-consistent Calculation

     iteration #  1     ecut=    90.00 Ry     beta= 0.30
     Davidson diagonalization with overlap
     ethr =  1.00E-06,  avg # of iterations =  2.0

     negative rho (up, down):  2.409E-04 0.000E+00

     total cpu time spent up to now is       82.4 secs

     total energy              =     -44.03982098 Ry
     estimated scf accuracy    <       0.00001961 Ry

     iteration #  2     ecut=    90.00 Ry     beta= 0.30
     Davidson diagonalization with overlap
     ethr =  2.45E-07,  avg # of iterations =  2.0

     negative rho (up, down):  2.408E-04 0.000E+00

     total cpu time spent up to now is       84.2 secs

     total energy              =     -44.03982198 Ry
     estimated scf accuracy    <       0.00000306 Ry

     iteration #  3     ecut=    90.00 Ry     beta= 0.30
     Davidson diagonalization with overlap
     ethr =  3.82E-08,  avg # of iterations =  4.0

     negative rho (up, down):  2.407E-04 0.000E+00

     total cpu time spent up to now is       86.0 secs

     total energy              =     -44.03982401 Ry
     estimated scf accuracy    <       0.00000170 Ry

     iteration #  4     ecut=    90.00 Ry     beta= 0.30
     Davidson diagonalization with overlap
     ethr =  2.13E-08,  avg # of iterations =  1.0

     negative rho (up, down):  2.402E-04 0.000E+00

     total cpu time spent up to now is       87.8 secs

     total energy              =     -44.03982416 Ry
     estimated scf accuracy    <       0.00000038 Ry

     iteration #  5     ecut=    90.00 Ry     beta= 0.30
     Davidson diagonalization with overlap
     ethr =  4.81E-09,  avg # of iterations =  5.0

     negative rho (up, down):  2.402E-04 0.000E+00

     total cpu time spent up to now is       89.7 secs

     total energy              =     -44.03982299 Ry
     estimated scf accuracy    <       0.00000776 Ry

     iteration #  6     ecut=    90.00 Ry     beta= 0.30
     Davidson diagonalization with overlap
     ethr =  4.81E-09,  avg # of iterations =  5.0

     negative rho (up, down):  2.402E-04 0.000E+00

     total cpu time spent up to now is       91.6 secs

     total energy              =     -44.03982432 Ry
     estimated scf accuracy    <       0.00000003 Ry

     iteration #  7     ecut=    90.00 Ry     beta= 0.30
     Davidson diagonalization with overlap
     ethr =  4.36E-10,  avg # of iterations =  1.0

     negative rho (up, down):  2.402E-04 0.000E+00

     total cpu time spent up to now is       93.3 secs

     total energy              =     -44.03982431 Ry
     estimated scf accuracy    <       0.00000003 Ry

     iteration #  8     ecut=    90.00 Ry     beta= 0.30
     Davidson diagonalization with overlap
     ethr =  3.52E-10,  avg # of iterations =  1.0

     negative rho (up, down):  2.401E-04 0.000E+00

     total cpu time spent up to now is       94.9 secs

     End of self-consistent calculation

          k = 0.0000 0.0000 0.0000 ( 69231 PWs)   bands (ev):

   -25.2014 -13.0105  -9.2067  -7.1425  -0.9479   0.2874   0.6737   0.7038

     the Fermi energy is    -3.7316 ev

!    total energy              =     -44.03982430 Ry
     total all-electron energy =      -152.886706 Ry
     estimated scf accuracy    <          8.0E-09 Ry
     smearing contrib. (-TS)   =       0.00000000 Ry
     internal energy E=F+TS    =     -44.03982430 Ry

     The total energy is F=E-TS. E is the sum of the following terms:
     one-electron contribution =     -65.23784459 Ry
     hartree contribution      =      34.29128045 Ry
     xc contribution           =      -8.85229719 Ry
     ewald contribution        =       5.34556988 Ry
     one-center paw contrib.   =      -9.58653287 Ry

     convergence has been achieved in   8 iterations

     negative rho (up, down):  2.401E-04 0.000E+00

     Forces acting on atoms (cartesian axes, Ry/au):

     atom    1 type  2   force =    -0.00056688   -0.00009005   -0.00032296
     atom    2 type  1   force =     0.00024732    0.00071057    0.00012037
     atom    3 type  1   force =     0.00031956   -0.00062052    0.00020259

     Total force =     0.001242     Total SCF correction =     0.000273
     SCF correction compared to forces is large: reduce conv_thr to get better values
     Energy error            =      1.7E-05 Ry
     Gradient error          =      7.1E-04 Ry/Bohr

     number of scf cycles    =   3
     number of bfgs steps    =   2

     energy             old  =     -44.0398072504 Ry
     energy             new  =     -44.0398243035 Ry

     CASE: energy            _new < energy            _old

     new trust radius        =       0.0009050240 bohr
     new conv_thr            =       0.0000000100 Ry


ATOMIC_POSITIONS (angstrom)
O                0.0004887113        5.2917883441        0.0007802584
H                0.4561826688        4.5646323420        0.4553790765
H                0.3876220566        6.0975779339        0.3802313725



     Writing config-only to output data dir ./H2O.save/ :
     XML data file
     NEW-OLD atomic charge density approx. for the potential

     negative rho (up, down):  2.405E-04 0.000E+00

     total cpu time spent up to now is       97.5 secs

     Self-consistent Calculation

     iteration #  1     ecut=    90.00 Ry     beta= 0.30
     Davidson diagonalization with overlap
     ethr =  1.00E-06,  avg # of iterations =  2.0

     Threshold (ethr) on eigenvalues was too large:
     Diagonalizing with lowered threshold

     Davidson diagonalization with overlap
     ethr =  1.84E-09,  avg # of iterations =  5.0

     negative rho (up, down):  2.404E-04 0.000E+00

     total cpu time spent up to now is      100.2 secs

     total energy              =     -44.03982594 Ry
     estimated scf accuracy    <       0.00000010 Ry

     iteration #  2     ecut=    90.00 Ry     beta= 0.30
     Davidson diagonalization with overlap
     ethr =  1.22E-09,  avg # of iterations =  1.0

     negative rho (up, down):  2.402E-04 0.000E+00

     total cpu time spent up to now is      102.0 secs

     total energy              =     -44.03982594 Ry
     estimated scf accuracy    <       0.00000004 Ry

     iteration #  3     ecut=    90.00 Ry     beta= 0.30
     Davidson diagonalization with overlap
     ethr =  5.50E-10,  avg # of iterations =  2.0

     negative rho (up, down):  2.400E-04 0.000E+00

     total cpu time spent up to now is      103.6 secs

     End of self-consistent calculation

          k = 0.0000 0.0000 0.0000 ( 69231 PWs)   bands (ev):

   -25.2026 -13.0060  -9.2109  -7.1428  -0.9481   0.2873   0.6739   0.7039

     the Fermi energy is    -3.7318 ev

!    total energy              =     -44.03982594 Ry
     total all-electron energy =      -152.886707 Ry
     estimated scf accuracy    <          1.4E-09 Ry
     smearing contrib. (-TS)   =       0.00000000 Ry
     internal energy E=F+TS    =     -44.03982594 Ry

     The total energy is F=E-TS. E is the sum of the following terms:
     one-electron contribution =     -65.23767807 Ry
     hartree contribution      =      34.29126541 Ry
     xc contribution           =      -8.85229174 Ry
     ewald contribution        =       5.34542683 Ry
     one-center paw contrib.   =      -9.58654838 Ry

     convergence has been achieved in   3 iterations

     negative rho (up, down):  2.400E-04 0.000E+00

     Forces acting on atoms (cartesian axes, Ry/au):

     atom    1 type  2   force =    -0.00048139   -0.00000939   -0.00021370
     atom    2 type  1   force =     0.00023546    0.00049352    0.00009982
     atom    3 type  1   force =     0.00024593   -0.00048413    0.00011389

     Total force =     0.000946     Total SCF correction =     0.000156
     SCF correction compared to forces is large: reduce conv_thr to get better values
     Energy error            =      1.6E-06 Ry
     Gradient error          =      4.9E-04 Ry/Bohr

     number of scf cycles    =   4
     number of bfgs steps    =   3

     energy             old  =     -44.0398243035 Ry
     energy             new  =     -44.0398259419 Ry

     CASE: energy            _new < energy            _old

     new trust radius        =       0.0009955264 bohr
     new conv_thr            =       0.0000000100 Ry


ATOMIC_POSITIONS (angstrom)
O                0.0000503725        5.2917741734        0.0005703217
H                0.4563935978        4.5651057357        0.4554736068
H                0.3878494663        6.0971187108        0.3803467789



     Writing config-only to output data dir ./H2O.save/ :
     XML data file
     NEW-OLD atomic charge density approx. for the potential

     negative rho (up, down):  2.406E-04 0.000E+00

     total cpu time spent up to now is      106.3 secs

     Self-consistent Calculation

     iteration #  1     ecut=    90.00 Ry     beta= 0.30
     Davidson diagonalization with overlap
     ethr =  1.00E-06,  avg # of iterations =  2.0

     Threshold (ethr) on eigenvalues was too large:
     Diagonalizing with lowered threshold

     Davidson diagonalization with overlap
     ethr =  3.56E-09,  avg # of iterations =  4.0

     negative rho (up, down):  2.404E-04 0.000E+00

     total cpu time spent up to now is      108.8 secs

     total energy              =     -44.03982695 Ry
     estimated scf accuracy    <       0.00000014 Ry

     iteration #  2     ecut=    90.00 Ry     beta= 0.30
     Davidson diagonalization with overlap
     ethr =  1.74E-09,  avg # of iterations =  1.0

     negative rho (up, down):  2.403E-04 0.000E+00

     total cpu time spent up to now is      110.6 secs

     total energy              =     -44.03982695 Ry
     estimated scf accuracy    <       0.00000005 Ry

     iteration #  3     ecut=    90.00 Ry     beta= 0.30
     Davidson diagonalization with overlap
     ethr =  6.77E-10,  avg # of iterations =  4.0

     negative rho (up, down):  2.403E-04 0.000E+00

     total cpu time spent up to now is      113.4 secs

     total energy              =     -44.03982699 Ry
     estimated scf accuracy    <       0.00000003 Ry

     iteration #  4     ecut=    90.00 Ry     beta= 0.30
     Davidson diagonalization with overlap
     ethr =  4.07E-10,  avg # of iterations =  2.0

     negative rho (up, down):  2.402E-04 0.000E+00

     total cpu time spent up to now is      115.5 secs

     total energy              =     -44.03982696 Ry
     estimated scf accuracy    <       0.00000007 Ry

     iteration #  5     ecut=    90.00 Ry     beta= 0.30
     Davidson diagonalization with overlap
     ethr =  4.07E-10,  avg # of iterations =  2.0

     negative rho (up, down):  2.400E-04 0.000E+00

     total cpu time spent up to now is      117.3 secs

     End of self-consistent calculation

          k = 0.0000 0.0000 0.0000 ( 69231 PWs)   bands (ev):

   -25.2036 -13.0006  -9.2155  -7.1429  -0.9484   0.2872   0.6740   0.7040

     the Fermi energy is    -3.7320 ev

!    total energy              =     -44.03982696 Ry
     total all-electron energy =      -152.886709 Ry
     estimated scf accuracy    <          1.7E-09 Ry
     smearing contrib. (-TS)   =       0.00000000 Ry
     internal energy E=F+TS    =     -44.03982696 Ry

     The total energy is F=E-TS. E is the sum of the following terms:
     one-electron contribution =     -65.23727526 Ry
     hartree contribution      =      34.29118851 Ry
     xc contribution           =      -8.85229326 Ry
     ewald contribution        =       5.34512278 Ry
     one-center paw contrib.   =      -9.58656974 Ry

     convergence has been achieved in   5 iterations

     negative rho (up, down):  2.400E-04 0.000E+00

     Forces acting on atoms (cartesian axes, Ry/au):

     atom    1 type  2   force =    -0.00009338   -0.00003672    0.00012649
     atom    2 type  1   force =     0.00002890    0.00034810   -0.00008365
     atom    3 type  1   force =     0.00006448   -0.00031138   -0.00004284

     Total force =     0.000508     Total SCF correction =     0.000028
     Energy error            =      1.0E-06 Ry
     Gradient error          =      3.5E-04 Ry/Bohr

     number of scf cycles    =   5
     number of bfgs steps    =   4

     energy             old  =     -44.0398259419 Ry
     energy             new  =     -44.0398269626 Ry

     CASE: energy            _new < energy            _old

     new trust radius        =       0.0008707731 bohr
     new conv_thr            =       0.0000000100 Ry


ATOMIC_POSITIONS (angstrom)
O               -0.0002596188        5.2917339472        0.0005324450
H                0.4565322023        4.5655451886        0.4554729509
H                0.3880208533        6.0967194841        0.3803853116



     Writing config-only to output data dir ./H2O.save/ :
     XML data file
     NEW-OLD atomic charge density approx. for the potential

     negative rho (up, down):  2.404E-04 0.000E+00

     total cpu time spent up to now is      119.9 secs

     Self-consistent Calculation

     iteration #  1     ecut=    90.00 Ry     beta= 0.30
     Davidson diagonalization with overlap
     ethr =  1.00E-06,  avg # of iterations =  2.0

     Threshold (ethr) on eigenvalues was too large:
     Diagonalizing with lowered threshold

     Davidson diagonalization with overlap
     ethr =  1.49E-09,  avg # of iterations =  4.0

     negative rho (up, down):  2.403E-04 0.000E+00

     total cpu time spent up to now is      123.4 secs

     total energy              =     -44.03982726 Ry
     estimated scf accuracy    <       0.00000007 Ry

     iteration #  2     ecut=    90.00 Ry     beta= 0.30
     Davidson diagonalization with overlap
     ethr =  8.83E-10,  avg # of iterations =  1.0

     negative rho (up, down):  2.402E-04 0.000E+00

     total cpu time spent up to now is      125.4 secs

     total energy              =     -44.03982726 Ry
     estimated scf accuracy    <       0.00000003 Ry

     iteration #  3     ecut=    90.00 Ry     beta= 0.30
     Davidson diagonalization with overlap
     ethr =  3.71E-10,  avg # of iterations =  2.0

     negative rho (up, down):  2.401E-04 0.000E+00

     total cpu time spent up to now is      127.2 secs

     End of self-consistent calculation

          k = 0.0000 0.0000 0.0000 ( 69231 PWs)   bands (ev):

   -25.2065 -12.9989  -9.2195  -7.1441  -0.9483   0.2872   0.6743   0.7042

     the Fermi energy is    -3.7326 ev

!    total energy              =     -44.03982727 Ry
     total all-electron energy =      -152.886709 Ry
     estimated scf accuracy    <          3.2E-09 Ry
     smearing contrib. (-TS)   =       0.00000000 Ry
     internal energy E=F+TS    =     -44.03982727 Ry

     The total energy is F=E-TS. E is the sum of the following terms:
     one-electron contribution =     -65.23976771 Ry
     hartree contribution      =      34.29207959 Ry
     xc contribution           =      -8.85243801 Ry
     ewald contribution        =       5.34687544 Ry
     one-center paw contrib.   =      -9.58657658 Ry

     convergence has been achieved in   3 iterations

     negative rho (up, down):  2.401E-04 0.000E+00

     Forces acting on atoms (cartesian axes, Ry/au):

     atom    1 type  2   force =    -0.00014430    0.00001970    0.00021973
     atom    2 type  1   force =     0.00009490   -0.00002804   -0.00008979
     atom    3 type  1   force =     0.00004939    0.00000833   -0.00012994

     Total force =     0.000327     Total SCF correction =     0.000031
     Energy error            =      3.0E-07 Ry
     Gradient error          =      2.2E-04 Ry/Bohr

     number of scf cycles    =   6
     number of bfgs steps    =   5

     energy             old  =     -44.0398269626 Ry
     energy             new  =     -44.0398272657 Ry

     CASE: energy            _new < energy            _old

     new trust radius        =       0.0003886986 bohr
     new conv_thr            =       0.0000000100 Ry


ATOMIC_POSITIONS (angstrom)
O               -0.0004345716        5.2917337187        0.0006406117
H                0.4566287449        4.5656406950        0.4554254729
H                0.3880992634        6.0966242062        0.3803246228



     Writing config-only to output data dir ./H2O.save/ :
     XML data file
     NEW-OLD atomic charge density approx. for the potential

     negative rho (up, down):  2.402E-04 0.000E+00

     total cpu time spent up to now is      129.9 secs

     Self-consistent Calculation

     iteration #  1     ecut=    90.00 Ry     beta= 0.30
     Davidson diagonalization with overlap
     ethr =  1.00E-06,  avg # of iterations =  2.0

     Threshold (ethr) on eigenvalues was too large:
     Diagonalizing with lowered threshold

     Davidson diagonalization with overlap
     ethr =  1.08E-10,  avg # of iterations =  4.0

     negative rho (up, down):  2.401E-04 0.000E+00

     total cpu time spent up to now is      132.6 secs

     total energy              =     -44.03982733 Ry
     estimated scf accuracy    <       0.00000002 Ry

     iteration #  2     ecut=    90.00 Ry     beta= 0.30
     Davidson diagonalization with overlap
     ethr =  2.24E-10,  avg # of iterations =  1.0

     negative rho (up, down):  2.401E-04 0.000E+00

     total cpu time spent up to now is      134.2 secs

     End of self-consistent calculation

          k = 0.0000 0.0000 0.0000 ( 69231 PWs)   bands (ev):

   -25.2067 -12.9982  -9.2198  -7.1438  -0.9482   0.2872   0.6744   0.7042

     the Fermi energy is    -3.7326 ev

!    total energy              =     -44.03982733 Ry
     total all-electron energy =      -152.886709 Ry
     estimated scf accuracy    <          7.9E-09 Ry
     smearing contrib. (-TS)   =       0.00000000 Ry
     internal energy E=F+TS    =     -44.03982733 Ry

     The total energy is F=E-TS. E is the sum of the following terms:
     one-electron contribution =     -65.24047510 Ry
     hartree contribution      =      34.29233834 Ry
     xc contribution           =      -8.85247892 Ry
     ewald contribution        =       5.34736530 Ry
     one-center paw contrib.   =      -9.58657695 Ry

     convergence has been achieved in   2 iterations

     negative rho (up, down):  2.401E-04 0.000E+00

     Forces acting on atoms (cartesian axes, Ry/au):

     atom    1 type  2   force =    -0.00011917    0.00001095    0.00014608
     atom    2 type  1   force =     0.00007425   -0.00010611   -0.00005894
     atom    3 type  1   force =     0.00004492    0.00009516   -0.00008713

     Total force =     0.000273     Total SCF correction =     0.000254
     SCF correction compared to forces is large: reduce conv_thr to get better values
     Energy error            =      6.9E-08 Ry
     Gradient error          =      1.5E-04 Ry/Bohr

     number of scf cycles    =   7
     number of bfgs steps    =   6

     energy             old  =     -44.0398272657 Ry
     energy             new  =     -44.0398273346 Ry

     CASE: energy            _new < energy            _old

     new trust radius        =       0.0004275685 bohr
     new conv_thr            =       0.0000000100 Ry


ATOMIC_POSITIONS (angstrom)
O               -0.0005951397        5.2917354702        0.0008000111
H                0.4567201772        4.5656427822        0.4553552425
H                0.3881683992        6.0966203675        0.3802354537



     Writing config-only to output data dir ./H2O.save/ :
     XML data file
     NEW-OLD atomic charge density approx. for the potential

     negative rho (up, down):  2.401E-04 0.000E+00

     total cpu time spent up to now is      136.8 secs

     Self-consistent Calculation

     iteration #  1     ecut=    90.00 Ry     beta= 0.30
     Davidson diagonalization with overlap
     ethr =  1.00E-06,  avg # of iterations =  2.0

     Threshold (ethr) on eigenvalues was too large:
     Diagonalizing with lowered threshold

     Davidson diagonalization with overlap
     ethr =  1.24E-10,  avg # of iterations =  5.0

     negative rho (up, down):  2.401E-04 0.000E+00

     total cpu time spent up to now is      139.5 secs

     total energy              =     -44.03982744 Ry
     estimated scf accuracy    <       0.00000002 Ry

     iteration #  2     ecut=    90.00 Ry     beta= 0.30
     Davidson diagonalization with overlap
     ethr =  2.06E-10,  avg # of iterations =  1.0

     negative rho (up, down):  2.401E-04 0.000E+00

     total cpu time spent up to now is      141.2 secs

     End of self-consistent calculation

          k = 0.0000 0.0000 0.0000 ( 69231 PWs)   bands (ev):

   -25.2067 -12.9982  -9.2198  -7.1438  -0.9483   0.2872   0.6743   0.7042

     the Fermi energy is    -3.7327 ev

!    total energy              =     -44.03982744 Ry
     total all-electron energy =      -152.886709 Ry
     estimated scf accuracy    <          7.6E-09 Ry
     smearing contrib. (-TS)   =       0.00000000 Ry
     internal energy E=F+TS    =     -44.03982744 Ry

     The total energy is F=E-TS. E is the sum of the following terms:
     one-electron contribution =     -65.24046948 Ry
     hartree contribution      =      34.29233363 Ry
     xc contribution           =      -8.85247797 Ry
     ewald contribution        =       5.34736318 Ry
     one-center paw contrib.   =      -9.58657679 Ry

     convergence has been achieved in   2 iterations

     negative rho (up, down):  2.401E-04 0.000E+00

     Forces acting on atoms (cartesian axes, Ry/au):

     atom    1 type  2   force =    -0.00011561   -0.00002363    0.00013996
     atom    2 type  1   force =     0.00006331   -0.00008948   -0.00006509
     atom    3 type  1   force =     0.00005230    0.00011311   -0.00007487

     Total force =     0.000266     Total SCF correction =     0.000211
     SCF correction compared to forces is large: reduce conv_thr to get better values
     Energy error            =      1.0E-07 Ry
     Gradient error          =      1.4E-04 Ry/Bohr

     number of scf cycles    =   8
     number of bfgs steps    =   7

     energy             old  =     -44.0398273346 Ry
     energy             new  =     -44.0398274378 Ry

     CASE: energy            _new < energy            _old


     WARNING: bfgs curvature condition failed, Theta= 0.856
     new trust radius        =       0.0006413527 bohr
     new conv_thr            =       0.0000000100 Ry


ATOMIC_POSITIONS (angstrom)
O               -0.0008355707        5.2917230407        0.0010392255
H                0.4568533609        4.5656512774        0.4552460636
H                0.3882756465        6.0966243018        0.3801054184



     Writing config-only to output data dir ./H2O.save/ :
     XML data file
     NEW-OLD atomic charge density approx. for the potential

     negative rho (up, down):  2.401E-04 0.000E+00

     total cpu time spent up to now is      143.7 secs

     Self-consistent Calculation

     iteration #  1     ecut=    90.00 Ry     beta= 0.30
     Davidson diagonalization with overlap
     ethr =  1.00E-06,  avg # of iterations =  2.0

     Threshold (ethr) on eigenvalues was too large:
     Diagonalizing with lowered threshold

     Davidson diagonalization with overlap
     ethr =  3.37E-10,  avg # of iterations =  5.0

     negative rho (up, down):  2.401E-04 0.000E+00

     total cpu time spent up to now is      147.0 secs

     total energy              =     -44.03982759 Ry
     estimated scf accuracy    <       0.00000004 Ry

     iteration #  2     ecut=    90.00 Ry     beta= 0.30
     Davidson diagonalization with overlap
     ethr =  5.49E-10,  avg # of iterations =  1.0

     negative rho (up, down):  2.401E-04 0.000E+00

     total cpu time spent up to now is      148.8 secs

     total energy              =     -44.03982759 Ry
     estimated scf accuracy    <       0.00000002 Ry

     iteration #  3     ecut=    90.00 Ry     beta= 0.30
     Davidson diagonalization with overlap
     ethr =  2.44E-10,  avg # of iterations =  2.0

     negative rho (up, down):  2.401E-04 0.000E+00

     total cpu time spent up to now is      150.5 secs

     End of self-consistent calculation

          k = 0.0000 0.0000 0.0000 ( 69231 PWs)   bands (ev):

   -25.2067 -12.9981  -9.2199  -7.1438  -0.9483   0.2872   0.6743   0.7041

     the Fermi energy is    -3.7327 ev

!    total energy              =     -44.03982759 Ry
     total all-electron energy =      -152.886709 Ry
     estimated scf accuracy    <          6.9E-10 Ry
     smearing contrib. (-TS)   =       0.00000000 Ry
     internal energy E=F+TS    =     -44.03982759 Ry

     The total energy is F=E-TS. E is the sum of the following terms:
     one-electron contribution =     -65.24044735 Ry
     hartree contribution      =      34.29235013 Ry
     xc contribution           =      -8.85248184 Ry
     ewald contribution        =       5.34732865 Ry
     one-center paw contrib.   =      -9.58657718 Ry

     convergence has been achieved in   3 iterations

     negative rho (up, down):  2.401E-04 0.000E+00

     Forces acting on atoms (cartesian axes, Ry/au):

     atom    1 type  2   force =    -0.00016271   -0.00000746    0.00017166
     atom    2 type  1   force =     0.00009003   -0.00009363   -0.00007467
     atom    3 type  1   force =     0.00007268    0.00010109   -0.00009699

     Total force =     0.000321     Total SCF correction =     0.000113
     SCF correction compared to forces is large: reduce conv_thr to get better values
     Energy error            =      1.6E-07 Ry
     Gradient error          =      1.7E-04 Ry/Bohr

     number of scf cycles    =   9
     number of bfgs steps    =   8

     energy             old  =     -44.0398274378 Ry
     energy             new  =     -44.0398275933 Ry

     CASE: energy            _new < energy            _old


     WARNING: bfgs curvature condition failed, Theta= 0.100
     new trust radius        =       0.0009620290 bohr
     new conv_thr            =       0.0000000100 Ry


ATOMIC_POSITIONS (angstrom)
O               -0.0011968287        5.2917046773        0.0013974457
H                0.4570534146        4.5656650093        0.4550826219
H                0.3884368508        6.0966289333        0.3799106398



     Writing config-only to output data dir ./H2O.save/ :
     XML data file
     NEW-OLD atomic charge density approx. for the potential

     negative rho (up, down):  2.401E-04 0.000E+00

     total cpu time spent up to now is      153.1 secs

     Self-consistent Calculation

     iteration #  1     ecut=    90.00 Ry     beta= 0.30
     Davidson diagonalization with overlap
     ethr =  1.00E-06,  avg # of iterations =  2.0

     Threshold (ethr) on eigenvalues was too large:
     Diagonalizing with lowered threshold

     Davidson diagonalization with overlap
     ethr =  8.95E-10,  avg # of iterations =  5.0

     negative rho (up, down):  2.401E-04 0.000E+00

     total cpu time spent up to now is      155.6 secs

     total energy              =     -44.03982783 Ry
     estimated scf accuracy    <       0.00000012 Ry

     iteration #  2     ecut=    90.00 Ry     beta= 0.30
     Davidson diagonalization with overlap
     ethr =  1.52E-09,  avg # of iterations =  1.0

     negative rho (up, down):  2.401E-04 0.000E+00

     total cpu time spent up to now is      157.3 secs

     total energy              =     -44.03982781 Ry
     estimated scf accuracy    <       0.00000005 Ry

     iteration #  3     ecut=    90.00 Ry     beta= 0.30
     Davidson diagonalization with overlap
     ethr =  6.87E-10,  avg # of iterations =  2.0

     negative rho (up, down):  2.401E-04 0.000E+00

     total cpu time spent up to now is      159.0 secs

     End of self-consistent calculation

          k = 0.0000 0.0000 0.0000 ( 69231 PWs)   bands (ev):

   -25.2067 -12.9981  -9.2200  -7.1439  -0.9483   0.2872   0.6743   0.7041

     the Fermi energy is    -3.7327 ev

!    total energy              =     -44.03982782 Ry
     total all-electron energy =      -152.886709 Ry
     estimated scf accuracy    <          1.8E-09 Ry
     smearing contrib. (-TS)   =       0.00000000 Ry
     internal energy E=F+TS    =     -44.03982782 Ry

     The total energy is F=E-TS. E is the sum of the following terms:
     one-electron contribution =     -65.24028544 Ry
     hartree contribution      =      34.29221865 Ry
     xc contribution           =      -8.85245784 Ry
     ewald contribution        =       5.34727273 Ry
     one-center paw contrib.   =      -9.58657593 Ry

     convergence has been achieved in   3 iterations

     negative rho (up, down):  2.401E-04 0.000E+00

     Forces acting on atoms (cartesian axes, Ry/au):

     atom    1 type  2   force =    -0.00021903   -0.00000605    0.00025056
     atom    2 type  1   force =     0.00012500   -0.00009092   -0.00010761
     atom    3 type  1   force =     0.00009404    0.00009696   -0.00014295

     Total force =     0.000430     Total SCF correction =     0.000190
     SCF correction compared to forces is large: reduce conv_thr to get better values
     Energy error            =      2.3E-07 Ry
     Gradient error          =      2.5E-04 Ry/Bohr

     number of scf cycles    =  10
     number of bfgs steps    =   9

     energy             old  =     -44.0398275933 Ry
     energy             new  =     -44.0398278215 Ry

     CASE: energy            _new < energy            _old


     WARNING: bfgs curvature condition failed, Theta= 0.095
     new trust radius        =       0.0014430435 bohr
     new conv_thr            =       0.0000000100 Ry


ATOMIC_POSITIONS (angstrom)
O               -0.0017391412        5.2916771692        0.0019343487
H                0.4573537524        4.5656869280        0.4548376887
H                0.3886788255        6.0966345226        0.3796186701



     Writing config-only to output data dir ./H2O.save/ :
     XML data file
     NEW-OLD atomic charge density approx. for the potential

     negative rho (up, down):  2.401E-04 0.000E+00

     total cpu time spent up to now is      161.6 secs

     Self-consistent Calculation

     iteration #  1     ecut=    90.00 Ry     beta= 0.30
     Davidson diagonalization with overlap
     ethr =  1.00E-06,  avg # of iterations =  2.0

     Threshold (ethr) on eigenvalues was too large:
     Diagonalizing with lowered threshold

     Davidson diagonalization with overlap
     ethr =  2.10E-09,  avg # of iterations =  5.0

     negative rho (up, down):  2.401E-04 0.000E+00

     total cpu time spent up to now is      164.1 secs

     total energy              =     -44.03982817 Ry
     estimated scf accuracy    <       0.00000027 Ry

     iteration #  2     ecut=    90.00 Ry     beta= 0.30
     Davidson diagonalization with overlap
     ethr =  3.33E-09,  avg # of iterations =  1.0

     negative rho (up, down):  2.401E-04 0.000E+00

     total cpu time spent up to now is      166.5 secs

     total energy              =     -44.03982815 Ry
     estimated scf accuracy    <       0.00000011 Ry

     iteration #  3     ecut=    90.00 Ry     beta= 0.30
     Davidson diagonalization with overlap
     ethr =  1.35E-09,  avg # of iterations =  2.0

     negative rho (up, down):  2.401E-04 0.000E+00

     total cpu time spent up to now is      168.6 secs

     End of self-consistent calculation

          k = 0.0000 0.0000 0.0000 ( 69231 PWs)   bands (ev):

   -25.2066 -12.9978  -9.2200  -7.1438  -0.9483   0.2872   0.6743   0.7041

     the Fermi energy is    -3.7327 ev

!    total energy              =     -44.03982816 Ry
     total all-electron energy =      -152.886710 Ry
     estimated scf accuracy    <          2.6E-09 Ry
     smearing contrib. (-TS)   =       0.00000000 Ry
     internal energy E=F+TS    =     -44.03982816 Ry

     The total energy is F=E-TS. E is the sum of the following terms:
     one-electron contribution =     -65.24026384 Ry
     hartree contribution      =      34.29230677 Ry
     xc contribution           =      -8.85247432 Ry
     ewald contribution        =       5.34718163 Ry
     one-center paw contrib.   =      -9.58657840 Ry

     convergence has been achieved in   3 iterations

     negative rho (up, down):  2.401E-04 0.000E+00

     Forces acting on atoms (cartesian axes, Ry/au):

     atom    1 type  2   force =    -0.00016897    0.00002118    0.00027826
     atom    2 type  1   force =     0.00010828   -0.00009317   -0.00011076
     atom    3 type  1   force =     0.00006068    0.00007198   -0.00016750

     Total force =     0.000420     Total SCF correction =     0.000128
     SCF correction compared to forces is large: reduce conv_thr to get better values
     Energy error            =      3.4E-07 Ry
     Gradient error          =      2.8E-04 Ry/Bohr

     number of scf cycles    =  11
     number of bfgs steps    =  10

     energy             old  =     -44.0398278215 Ry
     energy             new  =     -44.0398281635 Ry

     CASE: energy            _new < energy            _old

     new trust radius        =       0.0021645653 bohr
     new conv_thr            =       0.0000000100 Ry


ATOMIC_POSITIONS (angstrom)
O               -0.0025231904        5.2916520627        0.0027690139
H                0.4577965229        4.5656888519        0.4544644639
H                0.3890201042        6.0966577053        0.3791572296



     Writing config-only to output data dir ./H2O.save/ :
     XML data file
     NEW-OLD atomic charge density approx. for the potential

     negative rho (up, down):  2.400E-04 0.000E+00

     total cpu time spent up to now is      171.4 secs

     Self-consistent Calculation

     iteration #  1     ecut=    90.00 Ry     beta= 0.30
     Davidson diagonalization with overlap
     ethr =  1.00E-06,  avg # of iterations =  2.0

     Threshold (ethr) on eigenvalues was too large:
     Diagonalizing with lowered threshold

     Davidson diagonalization with overlap
     ethr =  4.38E-09,  avg # of iterations =  5.0

     negative rho (up, down):  2.400E-04 0.000E+00

     total cpu time spent up to now is      174.1 secs

     total energy              =     -44.03982870 Ry
     estimated scf accuracy    <       0.00000058 Ry

     iteration #  2     ecut=    90.00 Ry     beta= 0.30
     Davidson diagonalization with overlap
     ethr =  7.30E-09,  avg # of iterations =  1.0

     negative rho (up, down):  2.401E-04 0.000E+00

     total cpu time spent up to now is      175.8 secs

     total energy              =     -44.03982866 Ry
     estimated scf accuracy    <       0.00000025 Ry

     iteration #  3     ecut=    90.00 Ry     beta= 0.30
     Davidson diagonalization with overlap
     ethr =  3.12E-09,  avg # of iterations =  2.0

     negative rho (up, down):  2.401E-04 0.000E+00

     total cpu time spent up to now is      177.4 secs

     End of self-consistent calculation

          k = 0.0000 0.0000 0.0000 ( 69231 PWs)   bands (ev):

   -25.2067 -12.9981  -9.2199  -7.1439  -0.9483   0.2871   0.6742   0.7040

     the Fermi energy is    -3.7328 ev

!    total energy              =     -44.03982869 Ry
     total all-electron energy =      -152.886710 Ry
     estimated scf accuracy    <          4.8E-09 Ry
     smearing contrib. (-TS)   =       0.00000000 Ry
     internal energy E=F+TS    =     -44.03982869 Ry

     The total energy is F=E-TS. E is the sum of the following terms:
     one-electron contribution =     -65.24038401 Ry
     hartree contribution      =      34.29234122 Ry
     xc contribution           =      -8.85247466 Ry
     ewald contribution        =       5.34726528 Ry
     one-center paw contrib.   =      -9.58657652 Ry

     convergence has been achieved in   3 iterations

     negative rho (up, down):  2.401E-04 0.000E+00

     Forces acting on atoms (cartesian axes, Ry/au):

     atom    1 type  2   force =    -0.00030642    0.00001654    0.00047494
     atom    2 type  1   force =     0.00017521   -0.00008855   -0.00021696
     atom    3 type  1   force =     0.00013121    0.00007202   -0.00025798

     Total force =     0.000703     Total SCF correction =     0.000216
     SCF correction compared to forces is large: reduce conv_thr to get better values
     Energy error            =      5.2E-07 Ry
     Gradient error          =      4.7E-04 Ry/Bohr

     number of scf cycles    =  12
     number of bfgs steps    =  11

     energy             old  =     -44.0398281635 Ry
     energy             new  =     -44.0398286865 Ry

     CASE: energy            _new < energy            _old


     WARNING: bfgs curvature condition failed, Theta= 0.065
     new trust radius        =       0.0032468479 bohr
     new conv_thr            =       0.0000000100 Ry


ATOMIC_POSITIONS (angstrom)
O               -0.0037007091        5.2916140216        0.0040196415
H                0.4584608829        4.5656949321        0.4539045515
H                0.3895332629        6.0966896662        0.3784665145



     Writing config-only to output data dir ./H2O.save/ :
     XML data file
     NEW-OLD atomic charge density approx. for the potential

     negative rho (up, down):  2.400E-04 0.000E+00

     total cpu time spent up to now is      180.1 secs

     Self-consistent Calculation

     iteration #  1     ecut=    90.00 Ry     beta= 0.30
     Davidson diagonalization with overlap
     ethr =  1.00E-06,  avg # of iterations =  3.0

     Threshold (ethr) on eigenvalues was too large:
     Diagonalizing with lowered threshold

     Davidson diagonalization with overlap
     ethr =  1.12E-08,  avg # of iterations =  4.0

     negative rho (up, down):  2.400E-04 0.000E+00

     total cpu time spent up to now is      182.7 secs

     total energy              =     -44.03982948 Ry
     estimated scf accuracy    <       0.00000127 Ry

     iteration #  2     ecut=    90.00 Ry     beta= 0.30
     Davidson diagonalization with overlap
     ethr =  1.59E-08,  avg # of iterations =  1.0

     negative rho (up, down):  2.402E-04 0.000E+00

     total cpu time spent up to now is      184.7 secs

     total energy              =     -44.03982939 Ry
     estimated scf accuracy    <       0.00000056 Ry

     iteration #  3     ecut=    90.00 Ry     beta= 0.30
     Davidson diagonalization with overlap
     ethr =  7.03E-09,  avg # of iterations =  2.0

     negative rho (up, down):  2.401E-04 0.000E+00

     total cpu time spent up to now is      186.7 secs

     total energy              =     -44.03982948 Ry
     estimated scf accuracy    <       0.00000002 Ry

     iteration #  4     ecut=    90.00 Ry     beta= 0.30
     Davidson diagonalization with overlap
     ethr =  2.90E-10,  avg # of iterations =  5.0

     negative rho (up, down):  2.401E-04 0.000E+00

     total cpu time spent up to now is      188.8 secs

     total energy              =     -44.03982950 Ry
     estimated scf accuracy    <       0.00000002 Ry

     iteration #  5     ecut=    90.00 Ry     beta= 0.30
     Davidson diagonalization with overlap
     ethr =  2.90E-10,  avg # of iterations =  1.0

     negative rho (up, down):  2.401E-04 0.000E+00

     total cpu time spent up to now is      190.6 secs

     total energy              =     -44.03982949 Ry
     estimated scf accuracy    <       0.00000002 Ry

     iteration #  6     ecut=    90.00 Ry     beta= 0.30
     Davidson diagonalization with overlap
     ethr =  2.29E-10,  avg # of iterations =  2.0

     negative rho (up, down):  2.401E-04 0.000E+00

     total cpu time spent up to now is      192.3 secs

     End of self-consistent calculation

          k = 0.0000 0.0000 0.0000 ( 69231 PWs)   bands (ev):

   -25.2066 -12.9984  -9.2197  -7.1438  -0.9482   0.2871   0.6742   0.7040

     the Fermi energy is    -3.7328 ev

!    total energy              =     -44.03982949 Ry
     total all-electron energy =      -152.886711 Ry
     estimated scf accuracy    <          1.7E-10 Ry
     smearing contrib. (-TS)   =       0.00000000 Ry
     internal energy E=F+TS    =     -44.03982949 Ry

     The total energy is F=E-TS. E is the sum of the following terms:
     one-electron contribution =     -65.24038806 Ry
     hartree contribution      =      34.29227065 Ry
     xc contribution           =      -8.85246124 Ry
     ewald contribution        =       5.34732432 Ry
     one-center paw contrib.   =      -9.58657517 Ry

     convergence has been achieved in   6 iterations

     negative rho (up, down):  2.401E-04 0.000E+00

     Forces acting on atoms (cartesian axes, Ry/au):

     atom    1 type  2   force =    -0.00008336    0.00002517    0.00010881
     atom    2 type  1   force =     0.00006042   -0.00009318   -0.00003697
     atom    3 type  1   force =     0.00002294    0.00006802   -0.00007184

     Total force =     0.000208     Total SCF correction =     0.000041
     SCF correction compared to forces is large: reduce conv_thr to get better values
     Energy error            =      8.1E-07 Ry
     Gradient error          =      1.1E-04 Ry/Bohr

     number of scf cycles    =  13
     number of bfgs steps    =  12

     energy             old  =     -44.0398286865 Ry
     energy             new  =     -44.0398294943 Ry

     CASE: energy            _new < energy            _old

     new trust radius        =       0.0010605714 bohr
     new conv_thr            =       0.0000000100 Ry


ATOMIC_POSITIONS (angstrom)
O               -0.0040619914        5.2916134839        0.0044491227
H                0.4586753266        4.5656278566        0.4537194648
H                0.3896801015        6.0967572794        0.3782221199



     Writing config-only to output data dir ./H2O.save/ :
     XML data file
     NEW-OLD atomic charge density approx. for the potential

     negative rho (up, down):  2.400E-04 0.000E+00

     total cpu time spent up to now is      194.9 secs

     Self-consistent Calculation

     iteration #  1     ecut=    90.00 Ry     beta= 0.30
     Davidson diagonalization with overlap
     ethr =  1.00E-06,  avg # of iterations =  2.0

     Threshold (ethr) on eigenvalues was too large:
     Diagonalizing with lowered threshold

     Davidson diagonalization with overlap
     ethr =  1.02E-09,  avg # of iterations =  5.0

     negative rho (up, down):  2.400E-04 0.000E+00

     total cpu time spent up to now is      197.6 secs

     total energy              =     -44.03982977 Ry
     estimated scf accuracy    <       0.00000015 Ry

     iteration #  2     ecut=    90.00 Ry     beta= 0.30
     Davidson diagonalization with overlap
     ethr =  1.84E-09,  avg # of iterations =  1.0

     negative rho (up, down):  2.401E-04 0.000E+00

     total cpu time spent up to now is      199.6 secs

     total energy              =     -44.03982975 Ry
     estimated scf accuracy    <       0.00000006 Ry

     iteration #  3     ecut=    90.00 Ry     beta= 0.30
     Davidson diagonalization with overlap
     ethr =  8.02E-10,  avg # of iterations =  2.0

     negative rho (up, down):  2.401E-04 0.000E+00

     total cpu time spent up to now is      201.6 secs

     End of self-consistent calculation

          k = 0.0000 0.0000 0.0000 ( 69231 PWs)   bands (ev):

   -25.2062 -12.9986  -9.2191  -7.1437  -0.9482   0.2871   0.6742   0.7039

     the Fermi energy is    -3.7327 ev

!    total energy              =     -44.03982976 Ry
     total all-electron energy =      -152.886711 Ry
     estimated scf accuracy    <          1.2E-09 Ry
     smearing contrib. (-TS)   =       0.00000000 Ry
     internal energy E=F+TS    =     -44.03982976 Ry

     The total energy is F=E-TS. E is the sum of the following terms:
     one-electron contribution =     -65.23996633 Ry
     hartree contribution      =      34.29217114 Ry
     xc contribution           =      -8.85244660 Ry
     ewald contribution        =       5.34698700 Ry
     one-center paw contrib.   =      -9.58657497 Ry

     convergence has been achieved in   3 iterations

     negative rho (up, down):  2.401E-04 0.000E+00

     Forces acting on atoms (cartesian axes, Ry/au):

     atom    1 type  2   force =    -0.00022006   -0.00003087    0.00029496
     atom    2 type  1   force =     0.00010595   -0.00000297   -0.00014334
     atom    3 type  1   force =     0.00011411    0.00003384   -0.00015161

     Total force =     0.000453     Total SCF correction =     0.000120
     SCF correction compared to forces is large: reduce conv_thr to get better values
     Energy error            =      2.7E-07 Ry
     Gradient error          =      2.9E-04 Ry/Bohr

     number of scf cycles    =  14
     number of bfgs steps    =  13

     energy             old  =     -44.0398294943 Ry
     energy             new  =     -44.0398297605 Ry

     CASE: energy            _new < energy            _old


     WARNING: bfgs curvature condition failed, Theta= 0.330
     new trust radius        =       0.0011666285 bohr
     new conv_thr            =       0.0000000100 Ry


ATOMIC_POSITIONS (angstrom)
O               -0.0044817988        5.2915997086        0.0049015572
H                0.4589136026        4.5656139041        0.4535191930
H                0.3898616329        6.0967850072        0.3779699572



     Writing config-only to output data dir ./H2O.save/ :
     XML data file
     NEW-OLD atomic charge density approx. for the potential

     negative rho (up, down):  2.401E-04 0.000E+00

     total cpu time spent up to now is      204.5 secs

     Self-consistent Calculation

     iteration #  1     ecut=    90.00 Ry     beta= 0.30
     Davidson diagonalization with overlap
     ethr =  1.00E-06,  avg # of iterations =  2.0

     Threshold (ethr) on eigenvalues was too large:
     Diagonalizing with lowered threshold

     Davidson diagonalization with overlap
     ethr =  1.14E-09,  avg # of iterations =  7.0

     negative rho (up, down):  2.401E-04 0.000E+00

     total cpu time spent up to now is      208.7 secs

     total energy              =     -44.03983005 Ry
     estimated scf accuracy    <       0.00000016 Ry

     iteration #  2     ecut=    90.00 Ry     beta= 0.30
     Davidson diagonalization with overlap
     ethr =  2.00E-09,  avg # of iterations =  1.0

     negative rho (up, down):  2.401E-04 0.000E+00

     total cpu time spent up to now is      210.9 secs

     total energy              =     -44.03983004 Ry
     estimated scf accuracy    <       0.00000007 Ry

     iteration #  3     ecut=    90.00 Ry     beta= 0.30
     Davidson diagonalization with overlap
     ethr =  8.55E-10,  avg # of iterations =  2.0

     negative rho (up, down):  2.401E-04 0.000E+00

     total cpu time spent up to now is      213.4 secs

     End of self-consistent calculation

          k = 0.0000 0.0000 0.0000 ( 69231 PWs)   bands (ev):

   -25.2061 -12.9988  -9.2191  -7.1438  -0.9483   0.2871   0.6741   0.7039

     the Fermi energy is    -3.7327 ev

!    total energy              =     -44.03983004 Ry
     total all-electron energy =      -152.886712 Ry
     estimated scf accuracy    <          1.5E-09 Ry
     smearing contrib. (-TS)   =       0.00000000 Ry
     internal energy E=F+TS    =     -44.03983004 Ry

     The total energy is F=E-TS. E is the sum of the following terms:
     one-electron contribution =     -65.23966279 Ry
     hartree contribution      =      34.29197287 Ry
     xc contribution           =      -8.85240954 Ry
     ewald contribution        =       5.34684265 Ry
     one-center paw contrib.   =      -9.58657323 Ry

     convergence has been achieved in   3 iterations

     negative rho (up, down):  2.401E-04 0.000E+00

     Forces acting on atoms (cartesian axes, Ry/au):

     atom    1 type  2   force =    -0.00018145   -0.00004919    0.00027336
     atom    2 type  1   force =     0.00008774    0.00002763   -0.00014180
     atom    3 type  1   force =     0.00009372    0.00002156   -0.00013156

     Total force =     0.000406     Total SCF correction =     0.000138
     SCF correction compared to forces is large: reduce conv_thr to get better values
     Energy error            =      2.8E-07 Ry
     Gradient error          =      2.7E-04 Ry/Bohr

     number of scf cycles    =  15
     number of bfgs steps    =  14

     energy             old  =     -44.0398297605 Ry
     energy             new  =     -44.0398300433 Ry

     CASE: energy            _new < energy            _old


     WARNING: bfgs curvature condition failed, Theta= 0.953
     new trust radius        =       0.0017499428 bohr
     new conv_thr            =       0.0000000100 Ry


ATOMIC_POSITIONS (angstrom)
O               -0.0051112239        5.2915638111        0.0055798394
H                0.4592722280        4.5656174872        0.4532125844
H                0.3901324326        6.0968173216        0.3775982835



     Writing config-only to output data dir ./H2O.save/ :
     XML data file
     NEW-OLD atomic charge density approx. for the potential

     negative rho (up, down):  2.401E-04 0.000E+00

     total cpu time spent up to now is      216.9 secs

     Self-consistent Calculation

     iteration #  1     ecut=    90.00 Ry     beta= 0.30
     Davidson diagonalization with overlap
     ethr =  1.00E-06,  avg # of iterations =  2.0

     Threshold (ethr) on eigenvalues was too large:
     Diagonalizing with lowered threshold

     Davidson diagonalization with overlap
     ethr =  3.27E-09,  avg # of iterations =  5.0

     negative rho (up, down):  2.401E-04 0.000E+00

     total cpu time spent up to now is      220.9 secs

     total energy              =     -44.03983047 Ry
     estimated scf accuracy    <       0.00000039 Ry

     iteration #  2     ecut=    90.00 Ry     beta= 0.30
     Davidson diagonalization with overlap
     ethr =  4.87E-09,  avg # of iterations =  1.0

     negative rho (up, down):  2.401E-04 0.000E+00

     total cpu time spent up to now is      223.4 secs

     total energy              =     -44.03983044 Ry
     estimated scf accuracy    <       0.00000016 Ry

     iteration #  3     ecut=    90.00 Ry     beta= 0.30
     Davidson diagonalization with overlap
     ethr =  2.01E-09,  avg # of iterations =  2.0

     negative rho (up, down):  2.401E-04 0.000E+00

     total cpu time spent up to now is      225.5 secs

     End of self-consistent calculation

          k = 0.0000 0.0000 0.0000 ( 69231 PWs)   bands (ev):

   -25.2059 -12.9988  -9.2188  -7.1436  -0.9482   0.2871   0.6741   0.7039

     the Fermi energy is    -3.7327 ev

!    total energy              =     -44.03983046 Ry
     total all-electron energy =      -152.886712 Ry
     estimated scf accuracy    <          3.9E-09 Ry
     smearing contrib. (-TS)   =       0.00000000 Ry
     internal energy E=F+TS    =     -44.03983046 Ry

     The total energy is F=E-TS. E is the sum of the following terms:
     one-electron contribution =     -65.23953804 Ry
     hartree contribution      =      34.29189027 Ry
     xc contribution           =      -8.85239575 Ry
     ewald contribution        =       5.34678735 Ry
     one-center paw contrib.   =      -9.58657429 Ry

     convergence has been achieved in   3 iterations

     negative rho (up, down):  2.401E-04 0.000E+00

     Forces acting on atoms (cartesian axes, Ry/au):

     atom    1 type  2   force =    -0.00026690   -0.00005595    0.00030037
     atom    2 type  1   force =     0.00014542    0.00004321   -0.00014714
     atom    3 type  1   force =     0.00012147    0.00001274   -0.00015324

     Total force =     0.000498     Total SCF correction =     0.000172
     SCF correction compared to forces is large: reduce conv_thr to get better values
     Energy error            =      4.2E-07 Ry
     Gradient error          =      3.0E-04 Ry/Bohr

     number of scf cycles    =  16
     number of bfgs steps    =  15

     energy             old  =     -44.0398300433 Ry
     energy             new  =     -44.0398304615 Ry

     CASE: energy            _new < energy            _old


     WARNING: bfgs curvature condition failed, Theta= 0.354
     new trust radius        =       0.0026249142 bohr
     new conv_thr            =       0.0000000100 Ry


ATOMIC_POSITIONS (angstrom)
O               -0.0060461116        5.2915094981        0.0066057440
H                0.4598032158        4.5656123151        0.4527471888
H                0.3905363325        6.0968768068        0.3770377746



     Writing config-only to output data dir ./H2O.save/ :
     XML data file
     NEW-OLD atomic charge density approx. for the potential

     negative rho (up, down):  2.400E-04 0.000E+00

     total cpu time spent up to now is      228.7 secs

     Self-consistent Calculation

     iteration #  1     ecut=    90.00 Ry     beta= 0.30
     Davidson diagonalization with overlap
     ethr =  1.00E-06,  avg # of iterations =  2.0

     Threshold (ethr) on eigenvalues was too large:
     Diagonalizing with lowered threshold

     Davidson diagonalization with overlap
     ethr =  7.66E-09,  avg # of iterations =  6.0

     negative rho (up, down):  2.401E-04 0.000E+00

     total cpu time spent up to now is      232.1 secs

     total energy              =     -44.03983109 Ry
     estimated scf accuracy    <       0.00000086 Ry

     iteration #  2     ecut=    90.00 Ry     beta= 0.30
     Davidson diagonalization with overlap
     ethr =  1.07E-08,  avg # of iterations =  1.0

     negative rho (up, down):  2.402E-04 0.000E+00

     total cpu time spent up to now is      234.1 secs

     total energy              =     -44.03983104 Ry
     estimated scf accuracy    <       0.00000036 Ry

     iteration #  3     ecut=    90.00 Ry     beta= 0.30
     Davidson diagonalization with overlap
     ethr =  4.50E-09,  avg # of iterations =  2.0

     negative rho (up, down):  2.401E-04 0.000E+00

     total cpu time spent up to now is      236.1 secs

     End of self-consistent calculation

          k = 0.0000 0.0000 0.0000 ( 69231 PWs)   bands (ev):

   -25.2056 -12.9990  -9.2185  -7.1436  -0.9482   0.2870   0.6740   0.7038

     the Fermi energy is    -3.7327 ev

!    total energy              =     -44.03983107 Ry
     total all-electron energy =      -152.886713 Ry
     estimated scf accuracy    <          7.9E-09 Ry
     smearing contrib. (-TS)   =       0.00000000 Ry
     internal energy E=F+TS    =     -44.03983107 Ry

     The total energy is F=E-TS. E is the sum of the following terms:
     one-electron contribution =     -65.23973905 Ry
     hartree contribution      =      34.29226532 Ry
     xc contribution           =      -8.85246644 Ry
     ewald contribution        =       5.34668684 Ry
     one-center paw contrib.   =      -9.58657775 Ry

     convergence has been achieved in   3 iterations

     negative rho (up, down):  2.401E-04 0.000E+00

     Forces acting on atoms (cartesian axes, Ry/au):

     atom    1 type  2   force =    -0.00036062    0.00007054    0.00039385
     atom    2 type  1   force =     0.00020748    0.00001897   -0.00016619
     atom    3 type  1   force =     0.00015314   -0.00008951   -0.00022767

     Total force =     0.000667     Total SCF correction =     0.000251
     SCF correction compared to forces is large: reduce conv_thr to get better values
     Energy error            =      6.1E-07 Ry
     Gradient error          =      3.9E-04 Ry/Bohr

     number of scf cycles    =  17
     number of bfgs steps    =  16

     energy             old  =     -44.0398304615 Ry
     energy             new  =     -44.0398310719 Ry

     CASE: energy            _new < energy            _old


     WARNING: bfgs curvature condition failed, Theta= 0.458
     new trust radius        =       0.0022532320 bohr
     new conv_thr            =       0.0000000100 Ry


ATOMIC_POSITIONS (angstrom)
O               -0.0068318163        5.2914089277        0.0074969644
H                0.4602495147        4.5656072509        0.4523342997
H                0.3908757383        6.0969824413        0.3765594433



     Writing config-only to output data dir ./H2O.save/ :
     XML data file
     NEW-OLD atomic charge density approx. for the potential

     negative rho (up, down):  2.400E-04 0.000E+00

     total cpu time spent up to now is      240.3 secs

     Self-consistent Calculation

     iteration #  1     ecut=    90.00 Ry     beta= 0.30
[...]
     total all-electron energy =      -152.886715 Ry
     estimated scf accuracy    <          8.8E-09 Ry
     smearing contrib. (-TS)   =       0.00000000 Ry
     internal energy E=F+TS    =     -44.03983389 Ry

     The total energy is F=E-TS. E is the sum of the following terms:
     one-electron contribution =     -65.24128554 Ry
     hartree contribution      =      34.29300670 Ry
     xc contribution           =      -8.85258044 Ry
     ewald contribution        =       5.34760295 Ry
     one-center paw contrib.   =      -9.58657756 Ry

     convergence has been achieved in   2 iterations

     negative rho (up, down):  2.402E-04 0.000E+00

     Forces acting on atoms (cartesian axes, Ry/au):

     atom    1 type  2   force =    -0.00013479   -0.00049328    0.00012587
     atom    2 type  1   force =    -0.00006178    0.00016618   -0.00018219
     atom    3 type  1   force =     0.00019657    0.00032711    0.00005631

     Total force =     0.000701     Total SCF correction =     0.000224
     SCF correction compared to forces is large: reduce conv_thr to get better values
     Energy error            =      1.7E-08 Ry
     Gradient error          =      4.9E-04 Ry/Bohr

     number of scf cycles    =  46
     number of bfgs steps    =  39

     energy             old  =     -44.0398338687 Ry
     energy             new  =     -44.0398338853 Ry

     CASE: energy            _new < energy            _old


     WARNING: info=  8 for Hessian

     WARNING: bfgs curvature condition failed, Theta= 0.034
     uphill step: resetting bfgs history

     new trust radius        =       0.0002715469 bohr
     new conv_thr            =       0.0000000100 Ry


ATOMIC_POSITIONS (angstrom)
O               -0.0104343925        5.2911940755        0.0112453157
H                0.4625042571        4.5659290793        0.4508584852
H                0.3922235721        6.0968754652        0.3742869065



     Writing config-only to output data dir ./H2O.save/ :
     XML data file
     NEW-OLD atomic charge density approx. for the potential

     negative rho (up, down):  2.402E-04 0.000E+00

     total cpu time spent up to now is      529.4 secs

     Self-consistent Calculation

     iteration #  1     ecut=    90.00 Ry     beta= 0.30
     Davidson diagonalization with overlap
     ethr =  1.00E-06,  avg # of iterations =  2.0

     Threshold (ethr) on eigenvalues was too large:
     Diagonalizing with lowered threshold

     Davidson diagonalization with overlap
     ethr =  3.40E-10,  avg # of iterations =  5.0

     negative rho (up, down):  2.402E-04 0.000E+00

     total cpu time spent up to now is      532.5 secs

     total energy              =     -44.03983401 Ry
     estimated scf accuracy    <       0.00000008 Ry

     iteration #  2     ecut=    90.00 Ry     beta= 0.30
     Davidson diagonalization with overlap
     ethr =  1.00E-09,  avg # of iterations =  1.0

     negative rho (up, down):  2.402E-04 0.000E+00

     total cpu time spent up to now is      534.6 secs

     total energy              =     -44.03983400 Ry
     estimated scf accuracy    <       0.00000002 Ry

     iteration #  3     ecut=    90.00 Ry     beta= 0.30
     Davidson diagonalization with overlap
     ethr =  2.86E-10,  avg # of iterations =  4.0

     negative rho (up, down):  2.402E-04 0.000E+00

     total cpu time spent up to now is      536.7 secs

     total energy              =     -44.03983401 Ry
     estimated scf accuracy    <       0.00000002 Ry

     iteration #  4     ecut=    90.00 Ry     beta= 0.30
     Davidson diagonalization with overlap
     ethr =  2.47E-10,  avg # of iterations =  1.0

     negative rho (up, down):  2.402E-04 0.000E+00

     total cpu time spent up to now is      538.7 secs

     End of self-consistent calculation

          k = 0.0000 0.0000 0.0000 ( 69231 PWs)   bands (ev):

   -25.2064 -12.9985  -9.2195  -7.1438  -0.9481   0.2870   0.6739   0.7037

     the Fermi energy is    -3.7330 ev

!    total energy              =     -44.03983401 Ry
     total all-electron energy =      -152.886716 Ry
     estimated scf accuracy    <          3.2E-09 Ry
     smearing contrib. (-TS)   =       0.00000000 Ry
     internal energy E=F+TS    =     -44.03983401 Ry

     The total energy is F=E-TS. E is the sum of the following terms:
     one-electron contribution =     -65.24057720 Ry
     hartree contribution      =      34.29260139 Ry
     xc contribution           =      -8.85251035 Ry
     ewald contribution        =       5.34722870 Ry
     one-center paw contrib.   =      -9.58657655 Ry

     convergence has been achieved in   4 iterations

     negative rho (up, down):  2.402E-04 0.000E+00

     Forces acting on atoms (cartesian axes, Ry/au):

     atom    1 type  2   force =    -0.00009266    0.00014141    0.00010610
     atom    2 type  1   force =     0.00008075   -0.00009777   -0.00002075
     atom    3 type  1   force =     0.00001191   -0.00004364   -0.00008535

     Total force =     0.000256     Total SCF correction =     0.000098
     SCF correction compared to forces is large: reduce conv_thr to get better values
     Energy error            =      1.2E-07 Ry
     Gradient error          =      1.4E-04 Ry/Bohr

     number of scf cycles    =  47
     number of bfgs steps    =  40

     energy             old  =     -44.0398338853 Ry
     energy             new  =     -44.0398340088 Ry

     CASE: energy            _new < energy            _old

     new trust radius        =       0.0001565508 bohr
     new conv_thr            =       0.0000000100 Ry


ATOMIC_POSITIONS (angstrom)
O               -0.0104871971        5.2912201930        0.0113035612
H                0.4625363070        4.5658973955        0.4508348144
H                0.3922443268        6.0968810315        0.3742523318



     Writing config-only to output data dir ./H2O.save/ :
     XML data file
     NEW-OLD atomic charge density approx. for the potential

     negative rho (up, down):  2.402E-04 0.000E+00

     total cpu time spent up to now is      541.7 secs

     Self-consistent Calculation

     iteration #  1     ecut=    90.00 Ry     beta= 0.30
     Davidson diagonalization with overlap
     ethr =  1.00E-06,  avg # of iterations =  2.0

     Threshold (ethr) on eigenvalues was too large:
     Diagonalizing with lowered threshold

     Davidson diagonalization with overlap
     ethr =  2.19E-10,  avg # of iterations =  4.0

     negative rho (up, down):  2.402E-04 0.000E+00

     total cpu time spent up to now is      544.9 secs

     total energy              =     -44.03983405 Ry
     estimated scf accuracy    <       0.00000003 Ry

     iteration #  2     ecut=    90.00 Ry     beta= 0.30
     Davidson diagonalization with overlap
     ethr =  3.76E-10,  avg # of iterations =  1.0

     negative rho (up, down):  2.402E-04 0.000E+00

     total cpu time spent up to now is      547.0 secs

     End of self-consistent calculation

          k = 0.0000 0.0000 0.0000 ( 69231 PWs)   bands (ev):

   -25.2062 -12.9984  -9.2194  -7.1438  -0.9481   0.2869   0.6739   0.7037

     the Fermi energy is    -3.7329 ev

!    total energy              =     -44.03983405 Ry
     total all-electron energy =      -152.886716 Ry
     estimated scf accuracy    <          7.2E-09 Ry
     smearing contrib. (-TS)   =       0.00000000 Ry
     internal energy E=F+TS    =     -44.03983405 Ry

     The total energy is F=E-TS. E is the sum of the following terms:
     one-electron contribution =     -65.23954194 Ry
     hartree contribution      =      34.29156256 Ry
     xc contribution           =      -8.85232171 Ry
     ewald contribution        =       5.34703711 Ry
     one-center paw contrib.   =      -9.58657007 Ry

     convergence has been achieved in   2 iterations

     negative rho (up, down):  2.402E-04 0.000E+00

     Forces acting on atoms (cartesian axes, Ry/au):

     atom    1 type  2   force =    -0.00008595    0.00000421    0.00017065
     atom    2 type  1   force =     0.00004983   -0.00003822   -0.00007943
     atom    3 type  1   force =     0.00003612    0.00003401   -0.00009122

     Total force =     0.000240     Total SCF correction =     0.000168
     SCF correction compared to forces is large: reduce conv_thr to get better values
     Energy error            =      4.0E-08 Ry
     Gradient error          =      1.7E-04 Ry/Bohr

     number of scf cycles    =  48
     number of bfgs steps    =  41

     energy             old  =     -44.0398340088 Ry
     energy             new  =     -44.0398340485 Ry

     CASE: energy            _new < energy            _old


     WARNING: bfgs curvature condition failed, Theta= 0.818
     new trust radius        =       0.0001722058 bohr
     new conv_thr            =       0.0000000100 Ry


ATOMIC_POSITIONS (angstrom)
O               -0.0105446429        5.2912468463        0.0113690881
H                0.4625709386        4.5658636010        0.4508077404
H                0.3922671410        6.0968881726        0.3742138789



     Writing config-only to output data dir ./H2O.save/ :
     XML data file
     NEW-OLD atomic charge density approx. for the potential

     negative rho (up, down):  2.402E-04 0.000E+00

     total cpu time spent up to now is      550.2 secs

     Self-consistent Calculation

     iteration #  1     ecut=    90.00 Ry     beta= 0.30
     Davidson diagonalization with overlap
     ethr =  1.00E-06,  avg # of iterations =  2.0

     Threshold (ethr) on eigenvalues was too large:
     Diagonalizing with lowered threshold

     Davidson diagonalization with overlap
     ethr =  2.78E-10,  avg # of iterations =  4.0

     negative rho (up, down):  2.402E-04 0.000E+00

     total cpu time spent up to now is      553.3 secs

     total energy              =     -44.03983408 Ry
     estimated scf accuracy    <       0.00000003 Ry

     iteration #  2     ecut=    90.00 Ry     beta= 0.30
     Davidson diagonalization with overlap
     ethr =  3.85E-10,  avg # of iterations =  2.0

     negative rho (up, down):  2.402E-04 0.000E+00

     total cpu time spent up to now is      555.3 secs

     End of self-consistent calculation

          k = 0.0000 0.0000 0.0000 ( 69231 PWs)   bands (ev):

   -25.2062 -12.9985  -9.2195  -7.1439  -0.9482   0.2869   0.6739   0.7037

     the Fermi energy is    -3.7329 ev

!    total energy              =     -44.03983408 Ry
     total all-electron energy =      -152.886716 Ry
     estimated scf accuracy    <          7.0E-09 Ry
     smearing contrib. (-TS)   =       0.00000000 Ry
     internal energy E=F+TS    =     -44.03983408 Ry

     The total energy is F=E-TS. E is the sum of the following terms:
     one-electron contribution =     -65.24006581 Ry
     hartree contribution      =      34.29245756 Ry
     xc contribution           =      -8.85249027 Ry
     ewald contribution        =       5.34684295 Ry
     one-center paw contrib.   =      -9.58657851 Ry

     convergence has been achieved in   2 iterations

     negative rho (up, down):  2.402E-04 0.000E+00

     Forces acting on atoms (cartesian axes, Ry/au):

     atom    1 type  2   force =    -0.00006991   -0.00014018    0.00014842
     atom    2 type  1   force =     0.00000556    0.00008644   -0.00010009
     atom    3 type  1   force =     0.00006434    0.00005374   -0.00004834

     Total force =     0.000271     Total SCF correction =     0.000140
     SCF correction compared to forces is large: reduce conv_thr to get better values
     Energy error            =      3.3E-08 Ry
     Gradient error          =      1.5E-04 Ry/Bohr

     number of scf cycles    =  49
     number of bfgs steps    =  42

     energy             old  =     -44.0398340485 Ry
     energy             new  =     -44.0398340811 Ry

     CASE: energy            _new < energy            _old

     new trust radius        =       0.0002583087 bohr
     new conv_thr            =       0.0000000100 Ry


ATOMIC_POSITIONS (angstrom)
O               -0.0106443648        5.2912700189        0.0114596587
H                0.4626232797        4.5658608732        0.4507669201
H                0.3923145217        6.0968677278        0.3741641286



     Writing config-only to output data dir ./H2O.save/ :
     XML data file
     NEW-OLD atomic charge density approx. for the potential

     negative rho (up, down):  2.402E-04 0.000E+00

     total cpu time spent up to now is      558.3 secs

     Self-consistent Calculation

     iteration #  1     ecut=    90.00 Ry     beta= 0.30
     Davidson diagonalization with overlap
     ethr =  1.00E-06,  avg # of iterations =  2.0

     Threshold (ethr) on eigenvalues was too large:
     Diagonalizing with lowered threshold

     Davidson diagonalization with overlap
     ethr =  3.90E-10,  avg # of iterations =  4.0

     negative rho (up, down):  2.402E-04 0.000E+00

     total cpu time spent up to now is      561.3 secs

     total energy              =     -44.03983413 Ry
     estimated scf accuracy    <       0.00000005 Ry

     iteration #  2     ecut=    90.00 Ry     beta= 0.30
     Davidson diagonalization with overlap
     ethr =  6.68E-10,  avg # of iterations =  1.0

     negative rho (up, down):  2.402E-04 0.000E+00

     total cpu time spent up to now is      563.4 secs

     total energy              =     -44.03983412 Ry
     estimated scf accuracy    <       0.00000001 Ry

     iteration #  3     ecut=    90.00 Ry     beta= 0.30
     Davidson diagonalization with overlap
     ethr =  1.62E-10,  avg # of iterations =  4.0

     negative rho (up, down):  2.402E-04 0.000E+00

     total cpu time spent up to now is      565.6 secs

     total energy              =     -44.03983414 Ry
     estimated scf accuracy    <       0.00000002 Ry

     iteration #  4     ecut=    90.00 Ry     beta= 0.30
     Davidson diagonalization with overlap
     ethr =  1.62E-10,  avg # of iterations =  1.0

     negative rho (up, down):  2.402E-04 0.000E+00

     total cpu time spent up to now is      567.7 secs

     total energy              =     -44.03983413 Ry
     estimated scf accuracy    <       0.00000001 Ry

     iteration #  5     ecut=    90.00 Ry     beta= 0.30
     Davidson diagonalization with overlap
     ethr =  1.62E-10,  avg # of iterations =  4.0

     negative rho (up, down):  2.402E-04 0.000E+00

     total cpu time spent up to now is      570.0 secs

     total energy              =     -44.03983413 Ry
     estimated scf accuracy    <       0.00000003 Ry

     iteration #  6     ecut=    90.00 Ry     beta= 0.30
     Davidson diagonalization with overlap
     ethr =  1.62E-10,  avg # of iterations =  1.0

     negative rho (up, down):  2.402E-04 0.000E+00

     total cpu time spent up to now is      572.0 secs

     total energy              =     -44.03983413 Ry
     estimated scf accuracy    <       0.00000001 Ry

     iteration #  7     ecut=    90.00 Ry     beta= 0.30
     Davidson diagonalization with overlap
     ethr =  1.47E-10,  avg # of iterations =  2.0

     negative rho (up, down):  2.402E-04 0.000E+00

     total cpu time spent up to now is      574.1 secs

     End of self-consistent calculation

          k = 0.0000 0.0000 0.0000 ( 69231 PWs)   bands (ev):

   -25.2059 -12.9982  -9.2193  -7.1436  -0.9481   0.2869   0.6739   0.7037

     the Fermi energy is    -3.7329 ev

!    total energy              =     -44.03983413 Ry
     total all-electron energy =      -152.886716 Ry
     estimated scf accuracy    <          2.1E-09 Ry
     smearing contrib. (-TS)   =       0.00000000 Ry
     internal energy E=F+TS    =     -44.03983413 Ry

     The total energy is F=E-TS. E is the sum of the following terms:
     one-electron contribution =     -65.23936847 Ry
     hartree contribution      =      34.29163787 Ry
     xc contribution           =      -8.85234039 Ry
     ewald contribution        =       5.34680907 Ry
     one-center paw contrib.   =      -9.58657221 Ry

     convergence has been achieved in   7 iterations

     negative rho (up, down):  2.402E-04 0.000E+00

     Forces acting on atoms (cartesian axes, Ry/au):

     atom    1 type  2   force =    -0.00002958   -0.00021908    0.00019269
     atom    2 type  1   force =    -0.00004187    0.00010290   -0.00014874
     atom    3 type  1   force =     0.00007145    0.00011618   -0.00004395

     Total force =     0.000375     Total SCF correction =     0.000052
     SCF correction compared to forces is large: reduce conv_thr to get better values
     Energy error            =      5.2E-08 Ry
     Gradient error          =      2.2E-04 Ry/Bohr

     number of scf cycles    =  50
     number of bfgs steps    =  43

     energy             old  =     -44.0398340811 Ry
     energy             new  =     -44.0398341329 Ry

     CASE: energy            _new < energy            _old


     WARNING: bfgs curvature condition failed, Theta= 0.987
     new trust radius        =       0.0003874631 bohr

     The maximum number of steps has been reached.

     End of BFGS Geometry Optimization

ATOMIC_POSITIONS (angstrom)
O               -0.0107820289        5.2913068892        0.0116070669
H                0.4626899132        4.5658493717        0.4506942781
H                0.3923855524        6.0968423589        0.3740893624



     Writing config-only to output data dir ./H2O.save/ :
     XML data file
     NEW-OLD atomic charge density approx. for the potential

     negative rho (up, down):  2.402E-04 0.000E+00

     Writing all to output data dir ./H2O.save/ :
     XML data file, charge density, pseudopotentials, collected wavefunctions

     init_run     :      1.65s CPU      2.11s WALL (       1 calls)
     electrons    :    399.18s CPU    425.50s WALL (      50 calls)
     update_pot   :     48.64s CPU     50.59s WALL (      50 calls)
     forces       :     69.18s CPU     72.19s WALL (      50 calls)

     Called by init_run:
     wfcinit      :      0.10s CPU      0.12s WALL (       1 calls)
     potinit      :      0.80s CPU      0.89s WALL (       1 calls)
     hinit0       :      0.24s CPU      0.25s WALL (       1 calls)

     Called by electrons:
     c_bands      :     72.15s CPU     75.11s WALL (     230 calls)
     sum_band     :    101.87s CPU    108.02s WALL (     230 calls)
     v_of_rho     :    162.44s CPU    172.26s WALL (     234 calls)
     newd         :     64.76s CPU     71.06s WALL (     234 calls)
     PAW_pot      :      6.06s CPU      6.38s WALL (     284 calls)
     mix_rho      :     21.42s CPU     23.34s WALL (     230 calls)

     Called by c_bands:
     init_us_2    :      1.45s CPU      1.56s WALL (     561 calls)
     regterg      :     70.95s CPU     73.83s WALL (     230 calls)

     Called by *egterg:
     rdiaghg      :      0.05s CPU      0.06s WALL (     738 calls)
     h_psi        :     66.05s CPU     68.64s WALL (     835 calls)
     s_psi        :      0.47s CPU      0.48s WALL (     835 calls)
     g_psi        :      0.13s CPU      0.14s WALL (     604 calls)

     Called by h_psi:
     h_psi:calbec :      1.15s CPU      1.18s WALL (     835 calls)
     vloc_psi     :     64.25s CPU     66.81s WALL (     835 calls)
                                        0.00s GPU  (     835 calls)
     add_vuspsi   :      0.51s CPU      0.52s WALL (     835 calls)

     General routines
     calbec       :      1.76s CPU      1.82s WALL (    1315 calls)
     fft          :    200.06s CPU    206.86s WALL (    3021 calls)
     ffts         :     10.99s CPU     11.47s WALL (     464 calls)
     fftw         :     68.65s CPU     71.53s WALL (    5852 calls)
     interpolate  :     22.11s CPU     22.70s WALL (     234 calls)

     Parallel routines

     PWSCF        :   9m 3.35s CPU   9m37.43s WALL


   This run was terminated on:  22:21:55  22Mar2026            

=------------------------------------------------------------------------------=
   JOB DONE.
=------------------------------------------------------------------------------=
